/*--------------------------------*- C++ -*----------------------------------*\
  =========                 |
  \\      /  F ield         | OpenFOAM: The Open Source CFD Toolbox
   \\    /   O peration     | Website:  https://openfoam.org
    \\  /    A nd           | Version:  9
     \\/     M anipulation  |
\*---------------------------------------------------------------------------*/
FoamFile
{
    format      ascii;
    class       volScalarField;
    location    "120";
    object      alpha.water;
}
// * * * * * * * * * * * * * * * * * * * * * * * * * * * * * * * * * * * * * //

dimensions      [0 0 0 0 0 0 0];

internalField   nonuniform List<scalar> 
12230
(
1.00000000873
1.00000000933
1.00000000872
1.00000000814
1.00000000741
1.00000000659
1.00000000527
1.00000000387
1.00000000211
1.00000000065
0.999999998724
0.999999997811
0.999999997499
0.999999997626
0.999999997536
0.999999997612
0.999999998724
0.999999998821
0.999999999457
0.999999999988
1.00000000066
1.00000000071
1.00000000095
1.00000000077
1.00000000062
1.00000000012
0.999999999174
0.999999997569
0.999999993136
0.999999986359
0.999999980657
0.999999975377
0.999999972295
0.999999971686
0.99999997185
0.999999972509
0.999999973615
0.999999973663
0.999999973429
0.999999973147
0.999999973148
0.999999974641
0.999999985243
0.999999997623
1.00000000009
1.0000000018
1.00000000329
1.00000000467
1.00000000594
1.00000000712
1.00000002479
1.00000005297
1.00000008145
1.0000001067
1.0000001169
1.00000011345
1.00000009117
1.00000006343
1.00000002622
0.99999999398
0.99999994736
0.999999942431
0.999999940331
0.999999942796
0.999999939797
0.999999940616
0.999999965204
0.999999961753
0.999999962479
0.999999965995
0.999999998044
1.00000000517
1.00000001468
1.0000000121
1.00000000824
0.999999992246
0.999999975706
0.999999981612
0.999999992977
0.999999975187
0.99999936628
0.999999213649
0.999999213649
0.999999264742
0.999999146864
0.999998699741
0.9999986521
0.999998652117
0.999999077004
0.999999975785
1.00000000961
1.00000003419
1.00000005514
1.00000007082
1.00000008185
1.00000008908
1.00000009373
1.00000009675
1.000000099
1.00000010099
1.00000003831
1.00000010398
1.00000017087
1.00000022167
1.00000022397
1.00000018875
1.00000011248
1.00000003243
0.999999915657
0.99999987387
0.999999907534
0.999999948992
0.99999992509
0.999999828445
0.999999802287
0.999999802227
0.999999801928
0.999999782817
0.999999834143
0.999999979196
1.00000002782
1.00000003967
1.00000003842
1.00000000538
0.999999382543
0.999998866963
0.999998935849
0.999999159217
0.999999445022
0.999999580705
0.999999588456
0.999999588448
0.999999342241
0.999998653243
0.999998653156
0.999998653197
0.999998652117
0.999998652117
0.999999277189
0.999999991765
1.00000003515
1.00000010603
1.00000017336
1.00000023255
1.0000002839
1.00000032737
1.00000036351
1.00000039254
1.00000041497
1.00000043103
1.00000003681
1.00000010561
1.00000017456
1.00000023257
1.00000024698
1.00000021547
1.00000012452
1.00000001011
0.99999977005
0.99999971638
0.999999716383
0.99999991762
1
1.00000000711
0.999999956207
0.999999723799
0.999999612424
0.999999612439
0.999999749544
0.999999988815
1.00000003046
1.00000004033
1.00000005125
1.00000003359
0.999999977641
0.999998841024
0.999998759089
0.99999875909
0.99999876109
0.999998723607
0.999998647182
0.999998637101
0.999998637122
0.999998878497
0.999999629594
0.999999985299
1.0000000171
1.0000000356
1.00000004658
1.00000005498
1.00000006761
1.0000000836
1.00000010541
1.00000013135
1.00000016073
1.00000019116
1.00000022139
1.00000024943
1.0000002747
1.00000029541
1.00000003538
1.00000010779
1.00000017697
1.00000023402
1.00000024086
1.00000019538
1.00000008437
0.999999921387
0.999999707447
0.999999729399
0.999999877244
0.999999994568
1.00000000431
0.999999924275
0.999999633573
0.999999612424
0.999999612427
0.999999836997
0.999999956367
0.999999956787
0.999999943132
0.999999868616
0.999999731772
0.99999945309
0.999999227624
0.999998830158
0.999999073359
0.999999164751
0.999998857371
0.999998637095
0.999998637095
0.999998637095
0.999998981401
0.999999769645
0.999999999873
1.00000006725
1.00000013404
1.00000018355
1.00000021762
1.00000023867
1.00000025239
1.00000025703
1.00000025803
1.00000025597
1.00000025384
1.00000025138
1.00000024964
1.0000002475
1.00000024491
1.00000024
1.00000003369
1.0000001093
1.00000015459
1.00000016989
1.00000014833
1.000000105
1.00000001213
0.999999760074
0.999999704332
0.999999717916
0.999999828829
0.999999963462
1.00000000048
1.00000001553
1.00000000567
0.999999741693
0.999999612424
0.999999691069
0.999999814273
0.999999819347
0.99999977463
0.999999366022
0.999999122406
0.999999122406
0.999999138115
0.999999133637
0.999999141385
0.999999164734
0.999999209406
0.999999267046
0.999999397404
0.999999664671
0.999999956397
1.00000003356
1.00000010391
1.00000015823
1.00000020906
1.00000025006
1.00000028215
1.00000030816
1.00000033346
1.00000035295
1.00000037227
1.00000038941
1.00000040771
1.00000042546
1.00000044472
1.00000046403
1.00000048498
1.0000005062
1.00000003177
1.00000012292
1.00000018089
1.00000017216
1.00000009206
1.00000001768
0.999999951664
0.999999866758
0.999999772508
0.999999744057
0.999999764636
0.999999844776
0.999999864092
0.999999829951
0.999999680866
0.99999963635
0.99999966064
0.999999698492
0.99999975414
0.999999715319
0.999999662113
0.999999556719
0.999999512107
0.999999474138
0.999999479464
0.999999491327
0.999999565666
0.999999800516
0.999999994084
1.0000001206
1.00000026522
1.00000039746
1.00000053667
1.0000006611
1.0000007878
1.000000899
1.00000100911
1.00000128765
1.00000141147
1.00000152843
1.00000164191
1.00000174684
1.00000185519
1.00000196792
1.00000209374
1.00000223006
1.0000023787
1.00000253371
1.00000269394
1.00000285353
1.0000000301
1.00000012111
1.00000018342
1.0000001647
1.00000004903
0.999999896394
0.999999802976
0.999999819885
0.999999820065
0.999999758917
0.999999707019
0.999999706951
0.999999707174
0.999999737653
0.999999786711
0.999999834952
0.999999927926
0.999999940577
0.999999979128
0.999999979564
1.00000004968
1.00000011435
1.00000024998
1.00000039651
1.00000059905
1.00000080901
1.00000105998
1.00000130957
1.00000158773
1.00000185541
1.00000214022
1.00000240754
1.00000268325
1.00000293786
1.00000319579
1.00000343239
1.0000036551
1.00000404212
1.00000431582
1.00000456368
1.00000481016
1.00000505127
1.00000530563
1.00000557079
1.00000585589
1.00000615051
1.00000645374
1.00000675204
1.00000704258
1.00000731474
1.00000002919
1.00000009757
1.00000009344
1.0000000625
0.999999981098
0.999999774195
0.999999717629
0.999999729441
0.999999747342
0.999999786295
0.999999808931
0.999999853541
0.999999958886
1.00000008978
1.0000002506
1.00000044582
1.00000069449
1.00000091213
1.00000120928
1.00000146162
1.00000180799
1.0000021474
1.00000257524
1.00000301587
1.00000352625
1.00000403992
1.00000459584
1.00000513271
1.0000056865
1.00000620266
1.0000067183
1.00000718743
1.00000764774
1.00000806081
1.00000846331
1.00000882298
1.00000916986
1.0000094881
1.00000980144
1.00001008114
1.0000103535
1.00001060254
1.00001084631
1.00001107258
1.00001129508
1.00001150294
1.00001170632
1.00001189589
1.00001208003
1.00001225237
1.00000002936
1.00000010646
1.00000006347
0.999999929192
0.999999798001
0.999999774734
0.999999784599
0.999999828026
0.999999925563
1.00000008328
1.00000028094
1.00000058956
1.00000095261
1.00000143427
1.00000198512
1.00000260317
1.00000331083
1.00000399218
1.00000477841
1.00000549387
1.00000630089
1.00000705524
1.00000786685
1.0000086277
1.00000940666
1.0000101151
1.00001080858
1.00001141102
1.00001197986
1.00001244978
1.00001288149
1.00001322004
1.00001352618
1.00001375264
1.00001395708
1.00001409819
1.00001422432
1.00001431026
1.00001439439
1.00001443875
1.0000144818
1.00001450043
1.00001452246
1.0000145272
1.00001453615
1.00001453051
1.00001452755
1.00001451121
1.00001449654
1.00001447301
1.00000003062
1.00000012322
1.000000042
0.999999865991
0.999999797056
0.999999884433
1.00000003936
1.00000035035
1.00000075663
1.00000138436
1.00000215096
1.00000313507
1.00000422198
1.00000544499
1.00000668658
1.00000790645
1.00000910927
1.00001012692
1.00001113526
1.00001190179
1.00001265343
1.00001321012
1.00001373107
1.00001408866
1.00001439534
1.00001455295
1.00001465983
1.00001463113
1.00001456472
1.00001438347
1.00001418426
1.00001389689
1.00001361273
1.00001326609
1.00001293991
1.00001257346
1.00001223441
1.00001188009
1.00001156386
1.00001123047
1.00001093104
1.00001062607
1.00001035308
1.00001007491
1.00000982274
1.00000956494
1.00000932963
1.00000909088
1.00000887342
1.00000866077
1.00000003269
1.00000006629
0.999999935745
0.999999916317
1.00000008923
1.00000055099
1.00000129843
1.00000246506
1.0000039044
1.00000564736
1.00000743662
1.00000925986
1.00001088113
1.00001231831
1.00001342394
1.00001420279
1.00001472711
1.0000148463
1.00001488285
1.00001456326
1.00001425733
1.00001373782
1.00001324626
1.00001261792
1.00001202142
1.00001132394
1.000010669
1.00000993198
1.00000925226
1.00000850993
1.00000784021
1.00000712929
1.00000650297
1.00000585225
1.00000529144
1.00000472277
1.000004242
1.00000377913
1.00000340922
1.00000304234
1.00000274245
1.00000243402
1.0000021671
1.00000187699
1.00000161558
1.00000133522
1.00000108982
1.00000084144
1.00000063463
1.00000044423
1.00000003516
0.999999938112
0.999999982135
1.00000048085
1.00000164797
1.0000035889
1.00000602956
1.00000873405
1.00001120085
1.00001329195
1.00001470161
1.0000155556
1.00001576075
1.0000155586
1.00001493288
1.00001404148
1.00001304037
1.00001177367
1.00001068634
1.00000934625
1.00000827433
1.00000707073
1.00000607337
1.00000501021
1.00000412161
1.00000321419
1.00000250955
1.00000177996
1.00000120272
1.00000057803
1.00000006783
0.999999056129
0.999997795868
0.999996489591
0.999995084516
0.999993590975
0.999992341569
0.999991180911
0.999990256178
0.999989492274
0.99998902991
0.999988592539
0.999988112098
0.999987477033
0.999987139464
0.999987070548
0.999987156668
0.99998762848
0.999989000424
0.999990991804
1.00000003755
0.999999669226
1.00000099847
1.00000394316
1.00000804374
1.00001197375
1.00001488438
1.00001647941
1.00001682859
1.00001633203
1.00001519055
1.00001377806
1.00001211501
1.00001044166
1.00000867353
1.00000693681
1.0000053133
1.00000363683
1.00000242396
1.00000111861
1.00000037596
0.999999325069
0.999998062914
0.999996276785
0.999993719846
0.999990592865
0.999989737574
0.999989626894
0.999989259492
0.999986371608
0.999981796449
0.999981260842
0.999982081884
0.999991344998
0.999995084507
0.999978364952
0.999973177838
0.999973177838
0.999973630741
0.999973938014
0.999973479381
0.999973222351
0.999973222351
0.999973296043
0.999974353463
0.999974369928
0.999973383248
0.999973186877
0.999973186877
0.99997364587
1.00000003935
0.999997339968
1.00000864886
1.00000396864
1.00001194735
1.0000050546
1.00000987834
1.00000399472
1.0000069413
1.00000263792
1.00000414091
1.00000109148
1.00000151053
0.999999385393
0.999999075334
0.999997545817
0.99999700104
0.999996015187
0.999994997789
0.999993950923
0.999993444189
0.999992804847
0.999992097519
0.99999154169
0.999991212507
0.999991212488
0.999988785239
0.999987943361
0.999987910485
0.999986908972
0.99998646918
0.999986059885
0.999988371916
0.999990671462
0.999989665083
0.999989703327
0.999990610549
0.999991683781
0.999993216891
0.999993801514
0.999994331031
0.999994874554
0.999995567368
0.999995929915
0.999996211297
0.999996219165
0.999996280433
0.999996260909
0.999996212508
0.999996158695
1.00000000823
1.0000000093
1.00000001037
1.00000001146
1.00000001258
1.00000001374
1.00000001486
1.00000001603
1.00000001697
1.00000001785
1.00000001887
1.00000001992
1.00000002107
1.00000002213
1.00000002324
1.0000000242
1.00000002523
1.00000002619
1.00000002721
1.00000002815
1.00000002917
1.0000000301
1.00000003116
1.00000003216
1.00000003332
1.00000003446
1.00000003589
1.00000003721
1.00000003996
1.00000003997
1.00000004113
1.00000004268
1.00000004452
1.00000004624
1.00000004814
1.00000004996
1.00000005204
1.00000005405
1.00000005636
1.00000005865
1.00000006129
1.00000006398
1.00000006707
1.00000007028
1.00000007395
1.00000007776
1.00000008203
1.00000008641
1.00000009589
1.00000010262
1.00000010771
1.00000011363
1.0000001199
1.0000001268
1.00000013415
1.00000014232
1.0000001511
1.0000001608
1.00000017124
1.00000018267
1.00000019496
1.00000020833
1.00000022266
1.00000023804
1.00000025436
1.00000027157
1.00000028948
1.00000030784
1.00000036036
1.00000040105
1.00000042403
1.0000004528
1.000000484
1.00000051634
1.00000054973
1.00000058422
1.00000062029
1.00000065794
1.00000069747
1.00000073865
1.00000010357
1.00000010623
1.00000011082
1.00000011632
1.00000012445
1.00000013304
1.00000014218
1.00000015251
1.00000016724
1.0000001776
1.00000019036
1.00000020268
1.00000021503
1.00000022577
1.0000002363
1.00000024491
1.00000025396
1.00000026078
1.00000026825
1.00000027258
1.00000027727
1.00000027842
1.00000028015
1.0000002791
1.00000027901
1.00000027651
1.00000027589
1.00000025417
1.00000031064
1.00000030112
1.00000029896
1.00000029923
1.00000030377
1.00000030713
1.00000031425
1.00000032118
1.00000033285
1.0000003449
1.00000036192
1.00000037942
1.00000040177
1.00000042441
1.00000045154
1.00000047862
1.00000050972
1.00000054032
1.00000057407
1.0000006057
1.0000007344
1.0000008723
1.000000914
1.00000096432
1.00000101224
1.00000106007
1.00000110588
1.00000115419
1.00000120303
1.00000125569
1.00000131042
1.00000137021
1.00000143422
1.00000150501
1.00000158222
1.00000166716
1.00000175927
1.00000185796
1.00000196209
1.00000206895
1.00000295845
1.00000372489
1.00000391494
1.00000416432
1.00000440672
1.00000462157
1.00000481424
1.00000499391
1.00000517141
1.00000534801
1.00000552543
1.00000569876
1.00000044176
1.00000044694
1.00000044703
1.0000004421
1.00000043058
1.0000004117
1.0000003828
1.00000034455
1.0000003038
1.00000024624
1.0000001766
1.0000000909
0.999999984681
0.999999758812
0.999999825835
0.999999978906
1.00000002927
1.00000008039
1.000000129
1.00000017042
1.00000020654
1.00000023406
1.00000025623
1.00000026945
1.00000027832
1.00000027908
1.00000027815
1.00000024282
1.00000025741
1.00000021242
1.00000016153
1.0000000956
1.00000001792
0.999999940715
0.99999992712
0.999999982111
1.00000002342
1.00000008494
1.00000015889
1.000000236
1.00000032041
1.0000004059
1.00000049733
1.00000058882
1.00000068525
1.00000078073
1.00000087955
1.00000097541
1.00000115181
1.00000135049
1.00000145332
1.00000156476
1.00000167223
1.00000177941
1.00000188317
1.00000198899
1.00000209365
1.00000220163
1.00000231023
1.0000024238
1.00000254057
1.00000266428
1.00000279342
1.00000293002
1.00000307213
1.00000321929
1.00000336855
1.00000351675
1.00000449646
1.00000537244
1.00000562925
1.00000596068
1.00000629586
1.00000661271
1.00000691737
1.00000721769
1.00000752412
1.00000783486
1.00000815167
1.00000846707
1.00000031278
1.00000032505
1.0000003338
1.00000033621
1.00000033182
1.00000031806
1.00000029512
1.00000026831
1.00000022953
1.00000018091
1.00000012518
1.00000006309
0.999999983001
0.999999464291
0.999999432829
0.999999432835
0.999999481954
0.999999944378
1.00000001604
1.00000007162
1.00000012627
1.00000017339
1.00000021606
1.00000024895
1.00000027581
1.00000029187
1.00000030442
1.00000029211
1.0000003145
1.00000029054
1.00000027225
1.0000002525
1.00000024137
1.00000023443
1.0000002431
1.0000002617
1.00000029833
1.00000034467
1.00000040732
1.00000047687
1.00000055948
1.00000064572
1.00000074185
1.0000008389
1.00000094342
1.00000104632
1.00000115293
1.00000125708
1.00000144902
1.00000165094
1.00000176288
1.00000188379
1.00000199873
1.0000021144
1.00000222572
1.00000234115
1.00000245537
1.00000257614
1.00000269894
1.0000028315
1.00000297009
1.00000312132
1.00000328141
1.00000345458
1.00000363644
1.00000382784
1.00000402301
1.00000422087
1.00000533093
1.00000637735
1.00000670346
1.00000710845
1.00000751915
1.00000791491
1.00000830525
1.00000869533
1.0000090961
1.00000950027
1.00000991233
1.00001032078
1.00000023283
1.00000022081
1.00000020211
1.00000017496
1.00000013477
1.00000007717
1
0.999999679297
0.999999637478
0.999999677164
0.999999931195
1.00000002278
1.00000010427
1.00000018038
1.00000025018
1.00000031237
1.00000036551
1.00000040901
1.00000044302
1.00000046782
1.00000048763
1.00000050164
1.00000051631
1.0000005283
1.00000054487
1.00000056243
1.00000059116
1.00000061761
1.00000068271
1.0000007218
1.00000077565
1.00000083382
1.00000089983
1.00000096678
1.00000104093
1.00000111405
1.00000119283
1.00000126745
1.00000134539
1.00000141693
1.00000149041
1.00000155712
1.00000162556
1.00000168758
1.00000175254
1.00000181203
1.00000187317
1.00000193045
1.00000206536
1.0000022344
1.00000231129
1.00000239985
1.00000248467
1.00000257782
1.00000267326
1.00000278369
1.00000290158
1.00000303939
1.00000318949
1.00000336439
1.00000355586
1.00000377484
1.00000401186
1.00000427514
1.00000455397
1.00000485274
1.00000515874
1.00000547367
1.00000683013
1.00000822577
1.00000868197
1.00000922409
1.00000977238
1.00001030677
1.0000108369
1.00001136189
1.00001189174
1.00001241014
1.00001292638
1.00001342158
1.00000052911
1.00000055367
1.00000058031
1.00000060928
1.00000063945
1.00000067036
1.00000070149
1.00000074349
1.00000078649
1.00000082926
1.00000087467
1.00000092242
1.00000097226
1.00000102368
1.00000107805
1.0000011332
1.00000118956
1.00000124482
1.00000130009
1.00000135431
1.00000140929
1.00000146588
1.00000152319
1.00000158055
1.00000163757
1.00000169334
1.00000175301
1.00000180784
1.00000189034
1.00000194471
1.00000200385
1.00000205938
1.00000211984
1.00000218012
1.00000224779
1.00000231759
1.00000239581
1.00000247581
1.00000256432
1.00000265423
1.00000275363
1.00000285415
1.00000296501
1.00000307686
1.00000319999
1.00000332393
1.00000345612
1.00000359017
1.00000382409
1.00000405031
1.00000420295
1.00000436798
1.0000045262
1.00000469102
1.0000048521
1.0000050261
1.00000520069
1.00000539435
1.00000559344
1.00000581779
1.00000605187
1.0000063154
1.0000065909
1.00000689728
1.00000721577
1.00000756298
1.00000791824
1.00000829793
1.00000982022
1.00001159082
1.00001213069
1.00001277057
1.00001341936
1.00001406137
1.00001470492
1.000015342
1.00001598204
1.00001659615
1.00001720347
1.00001777078
1.00000300917
1.00000316457
1.0000033167
1.0000034639
1.0000036021
1.00000372953
1.00000384319
1.00000395315
1.00000404994
1.00000412788
1.00000419032
1.00000423725
1.00000426786
1.00000428414
1.00000428359
1.00000426909
1.00000423761
1.00000419247
1.00000413363
1.00000406393
1.00000398665
1.00000390359
1.00000381774
1.00000372944
1.00000364297
1.00000355954
1.0000034865
1.00000343773
1.00000339214
1.00000335475
1.00000333525
1.00000333229
1.00000335189
1.000003392
1.00000345973
1.00000354729
1.00000366109
1.00000379089
1.00000394353
1.00000410956
1.00000429413
1.0000044889
1.00000469923
1.00000491641
1.00000514764
1.00000538311
1.00000562577
1.00000586802
1.00000618977
1.00000655652
1.00000682538
1.00000710069
1.00000736274
1.00000763086
1.00000789034
1.00000816379
1.00000843293
1.00000872435
1.00000901512
1.00000933522
1.0000096576
1.00001001504
1.00001037625
1.00001077696
1.00001118299
1.00001163125
1.00001208486
1.00001258575
1.00001431748
1.00001664673
1.000017316
1.0000181041
1.00001889597
1.00001968543
1.00002047364
1.00002124593
1.00002201113
1.00002272419
1.00002342048
1.00002404258
1.00000756396
1.00000779565
1.00000800469
1.00000818794
1.00000833961
1.0000084592
1.0000085419
1.00000860201
1.00000862802
1.0000086196
1.00000858182
1.00000851936
1.00000843592
1.00000833724
1.00000822666
1.00000811077
1.00000799189
1.00000787829
1.00000777237
1.00000768435
1.00000761433
1.00000757085
1.00000755193
1.00000756167
1.00000759999
1.0000076663
1.00000776217
1.00000790942
1.00000807676
1.00000825162
1.00000844922
1.00000866336
1.00000889533
1.00000914275
1.00000940196
1.00000966866
1.00000993886
1.00001020757
1.00001047638
1.00001073779
1.00001099779
1.00001124693
1.00001149376
1.00001173008
1.000011967
1.00001219641
1.00001242275
1.00001264358
1.00001299814
1.00001331247
1.00001354023
1.00001377107
1.00001398901
1.00001421812
1.00001443816
1.00001467849
1.00001491215
1.00001517672
1.00001543473
1.00001573182
1.00001602588
1.00001637019
1.00001671389
1.00001711999
1.00001752973
1.00001801523
1.00001851386
1.00001911614
1.00002096048
1.00002391067
1.00002470696
1.00002564379
1.00002656872
1.00002750105
1.00002842715
1.00002933247
1.00003022547
1.00003103835
1.00003182915
1.00003249161
1.00001241598
1.00001257624
1.00001273222
1.00001288648
1.00001303452
1.00001318103
1.00001331923
1.00001346807
1.00001361329
1.00001375216
1.00001388659
1.00001401958
1.00001414942
1.0000142787
1.0000144042
1.00001452942
1.0000146491
1.00001476881
1.00001488223
1.00001499704
1.00001510657
1.00001521667
1.00001532178
1.00001542358
1.00001552055
1.00001561472
1.00001570248
1.00001581069
1.00001590586
1.00001597839
1.00001604341
1.00001609884
1.00001614907
1.00001619053
1.00001622417
1.00001624603
1.000016258
1.00001625767
1.00001624763
1.00001623046
1.00001620613
1.00001617791
1.00001614876
1.00001612178
1.00001610611
1.0000160979
1.00001609486
1.0000160916
1.00001622904
1.00001643853
1.00001654158
1.0000166475
1.00001675335
1.00001689091
1.00001704699
1.00001725216
1.00001747561
1.00001775768
1.00001805787
1.00001843877
1.00001883625
1.00001933121
1.00001983737
1.00002045957
1.00002108983
1.00002185696
1.00002265771
1.00002365522
1.0000258591
1.00002978853
1.00003101437
1.00003239632
1.00003372775
1.00003507453
1.00003639525
1.00003768811
1.0000389579
1.00004010118
1.00004119933
1.00004205297
1.00001444988
1.00001442227
1.00001438952
1.00001435746
1.00001431783
1.00001428227
1.00001423705
1.00001421077
1.00001418075
1.00001414886
1.00001411441
1.000014082
1.00001404883
1.00001401734
1.00001398335
1.00001395167
1.00001391164
1.00001387438
1.00001382352
1.00001377518
1.00001371347
1.00001365101
1.00001357806
1.00001349838
1.00001341075
1.00001331652
1.00001321258
1.00001312976
1.00001311415
1.00001297903
1.00001285306
1.00001271417
1.00001256769
1.00001241259
1.00001224435
1.00001206582
1.00001187718
1.00001168057
1.00001148259
1.00001128192
1.00001108666
1.00001090696
1.00001075047
1.00001062359
1.00001051968
1.00001044242
1.0000103839
1.00001035396
1.00001099828
1.00001103566
1.00001117531
1.00001135796
1.00001157553
1.00001187333
1.00001221742
1.0000126465
1.00001310721
1.00001366018
1.00001425712
1.00001496646
1.00001572862
1.00001662972
1.000017572
1.00001867195
1.00001980968
1.00002115942
1.00002255976
1.00002429098
1.00002715201
1.00003241887
1.00003436812
1.00003647451
1.00003847652
1.00004052883
1.00004254696
1.00004456305
1.00004656995
1.00004840255
1.00005017095
1.0000515018
1.00000846769
1.00000828018
1.00000809572
1.00000792578
1.00000775352
1.00000760022
1.00000744017
1.00000731375
1.00000718836
1.00000706683
1.00000694507
1.00000682991
1.00000671581
1.00000660686
1.00000649437
1.00000638629
1.00000625977
1.00000613539
1.00000597987
1.00000582321
1.00000563627
1.00000544283
1.0000052304
1.00000500812
1.00000477799
1.00000454732
1.00000431514
1.00000406703
1.00000400436
1.00000382492
1.0000036242
1.00000340426
1.00000315783
1.00000285434
1.00000248852
1.00000206968
1.00000160106
1.00000111332
1.00000063302
1.00000017314
0.999999682634
0.999999618697
0.999999894309
1.00000020462
1.00000054971
1.00000088066
1.0000011529
1.00000180119
1.00000209
1.00000242297
1.00000276145
1.00000312442
1.00000352659
1.00000395383
1.00000435615
1.00000467693
1.00000478492
1.00000460543
1.0000040575
1.000003544
1.00000334842
1.000003938
1.00000524438
1.00000742066
1.00001010565
1.00001329916
1.00001664813
1.00002033928
1.00002503933
1.00003261228
1.00003586335
1.00003907527
1.00004196923
1.00004490645
1.00004774337
1.0000506191
1.00005349763
1.00005612648
1.00005871373
1.00006061267
1.00000029278
1.00000017029
1.00000007055
1.00000001091
0.999999931404
0.999999870354
0.999999755586
0.999999599067
0.999999357113
0.999999012244
0.999998498196
0.999997726168
0.999996953577
0.999996878488
0.999997212099
0.999997334944
0.99999071337
0.999987556928
0.999987556928
0.99998873647
0.999995261356
0.999998734444
0.999996113272
0.999975552395
0.999968518327
0.99996851859
0.999975038376
0.999998910032
1.00000003717
1.00000038832
1.00000048313
1.00000035343
1.00000007405
0.999984241773
0.999954203374
0.999953885816
0.999953885825
0.999954747829
0.999983551141
0.999998636207
0.99999879273
0.999997859863
0.999997144292
0.999997595003
0.999999110996
0.999999962818
1.00000019855
1.00000064059
1.00000105051
1.00000126152
1.00000129375
1.00000103759
1.0000002172
0.999967442613
0.999939135508
0.999939139324
0.999939142656
0.999939144809
0.999969179561
0.99999999586
1.00000349477
1.00000755396
1.0000106746
1.00001321868
1.00001496781
1.00001619504
1.0000166399
1.0000171497
1.00001890409
1.00002486958
1.00002718591
1.00003034711
1.00003423982
1.0000389548
1.00004426561
1.00004981221
1.00005552773
1.00006051431
1.00006527223
1.00006861128
0.999991503325
0.999988253278
0.999975562049
0.999972722821
0.999972722898
0.999976605832
0.99997841787
0.999974173816
0.999970638049
0.999970638044
0.999970670262
0.999970689505
0.999970664743
0.999970664743
0.999972473559
0.999988974906
0.999998859025
0.999999366859
0.999999366858
0.99999799964
0.99997687085
0.999968518229
0.999968518229
0.999968518229
0.99996851826
0.999971581529
0.99999646932
0.999999999999
1.00000041306
1.00000049329
1.00000024535
0.999984936094
0.999954110622
0.999954110613
0.999954228527
0.999954238473
0.999953992004
0.999953866362
0.999953833174
0.999953820336
0.999953820512
0.999962263634
0.999996554494
0.999998491831
0.99998299475
0.999936114515
0.999936114515
0.99993611457
0.999936236228
0.99993634245
0.999936342265
0.999936342507
0.999938297981
0.999939137618
0.999939135041
0.999945220858
0.999982540494
0.99998709051
0.999974481791
0.999972362092
0.999972362073
0.999972774262
0.999972774844
0.999972777661
0.999993298514
1.00000294854
1.00001068421
1.00001798048
1.0000285268
1.00004081501
1.00004770989
1.00005394071
1.00005972181
1.0000656724
1.00007169944
1.0000773708
1.00008313257
1.00008730067
1.00009111471
1.00009276614
0.999973716982
0.999973014548
0.99997272329
0.999972723121
0.999972861371
0.999974888343
0.999974733904
0.999971162764
0.999970638044
0.999970638049
0.99997184498
0.999985265141
0.999989317054
0.999980031019
0.999969585576
0.999968099766
0.999968099766
0.999968104839
0.999968089072
0.999968086243
0.999968086254
0.999993164438
0.999999996424
1.00000028134
1.00000036699
1.00000012722
0.999977763691
0.999963756958
0.999963756708
0.999963756795
0.999970701333
0.999993268573
0.999993510061
0.999992418481
0.999992222629
0.999996107505
0.999997330293
0.999997330268
0.999994435192
0.999961334459
0.999953820336
0.999960101686
0.999994839902
0.999998494265
0.999998494215
0.999993574545
0.999945986415
0.999936114742
0.999936117455
0.999959856072
0.999996956927
0.999999999971
1.00000114167
1.00000246318
1.00000374035
1.00000464143
1.00000567948
1.00000681441
1.00000901963
1.00001223036
1.00001624568
1.0000207388
1.00002528016
1.00003039004
1.00003678475
1.00004324549
1.00005017668
1.00005655456
1.00007301951
1.00008507727
1.00009052615
1.00009425152
1.000099106
1.00010416696
1.00011114936
1.00011683983
1.00012435573
1.0001275051
1.00013090632
1.00012911866
0.99999609336
0.999995979534
0.999995674345
0.999995510901
0.999995486499
0.999995488041
0.999994651111
0.999989507728
0.999988434812
0.999991705934
0.999995168944
0.999995594337
0.999995594338
0.999995735458
0.999996084876
0.99999619737
0.999995962656
0.99998991754
0.999968281807
0.999968086254
0.999968086248
0.999986850736
0.999998335658
0.999998290328
0.99999704874
0.999996814878
0.999997021133
0.999997070597
0.999995146204
0.999993318948
0.99999574002
0.999999602968
1.00000010492
1.00000001048
0.999967836816
0.999962423874
0.999964184078
0.999992972728
0.999996463825
0.999996463825
0.999996167766
0.999995471707
0.999995426056
0.99999700142
0.999997479977
0.999997131081
0.999997024125
0.999994886403
0.999989874854
0.999989983519
0.999998797308
1.00000110718
1.00000326218
1.00000394139
1.00000216902
0.999994916325
0.999991344263
0.999991344391
0.999999436526
1.00000302875
1.00000406268
1.00000450257
1.00000745595
1.0000097237
1.00000722865
0.999995664141
0.99997454522
0.999970448413
0.999970448014
0.999986028112
1.00000419504
1.00001827256
1.00002411916
1.00001959519
1.00001586469
1.00002146842
1.00004054686
1.00006510617
1.00009010378
1.00010911647
1.00000078178
1.00000082705
1.00000087492
1.00000092526
1.00000097836
1.00000112079
1.00000125717
1.0000013187
1.00000139396
1.00000146932
1.00000154102
1.00000160944
1.00000167699
1.00000174398
1.00000181127
1.00000187834
1.00000194716
1.00000201846
1.00000209524
1.00000217719
1.00000234232
1.00000248736
1.00000260664
1.00000272729
1.00000283898
1.00000294697
1.00000305479
1.00000316988
1.00000329617
1.00000343985
1.00000360277
1.00000378592
1.00000398756
1.00000420461
1.00000456103
1.00000492663
1.00000533701
1.000005731
1.00000612017
1.00000652165
1.00000696249
1.00000745303
1.00000800669
1.00000862194
1.00000930148
1.00001004296
1.00001084757
1.00001171404
1.00001263701
1.00001374828
1.00001496812
1.0000162286
1.00001738856
1.00001843521
1.00001937415
1.00002026161
1.00002112574
1.00002203092
1.00002301889
1.00002416478
1.00002553127
1.00002717844
1.00002914315
1.00003142635
1.00003401471
1.00003682363
1.00003975791
1.00004263384
1.00004533747
1.00004821708
1.00005064058
1.00005210027
1.00005271744
1.00005244485
1.00005133734
1.00004946433
1.00004688124
1.00004370831
1.00004022354
1.00003665544
1.00003323305
1.00003007977
1.00002727807
1.00002488778
1.00002290673
1.00002179155
1.00002080592
1.00001971789
1.00001842243
1.00001712779
1.00001570932
1.0000139692
1.00001170069
1.00000880481
1.00000531987
1.00000167624
1
0.999999976594
0.999999644123
0.999997802149
0.999993620225
0.999988149855
0.999978931143
0.999964405245
0.999942809933
0.999912375871
0.999872362262
0.99982117051
0.999710693443
0.998896820346
0.997011194849
0.994070071772
0.990395727745
0.986196964609
0.981083019803
0.974040758451
0.964149172906
0.952205343572
0.940987629614
0.931849058202
0.92295022173
0.910816235614