/*--------------------------------*- C++ -*----------------------------------*\
  =========                 |
  \\      /  F ield         | OpenFOAM: The Open Source CFD Toolbox
   \\    /   O peration     | Website:  https://openfoam.org
    \\  /    A nd           | Version:  9
     \\/     M anipulation  |
\*---------------------------------------------------------------------------*/
FoamFile
{
    format      ascii;
    class       surfaceScalarField;
    location    "120";
    object      alphaPhi0.water;
}
// * * * * * * * * * * * * * * * * * * * * * * * * * * * * * * * * * * * * * //

dimensions      [0 3 -1 0 0 0 0];

internalField   nonuniform List<scalar> 
24078
(
0.0600204408639
-0.0193965140434
0.0607763578705
-0.000755917045709
0.0607408057647
3.55520276807e-05
0.0607483742286
-7.56854745004e-06
0.0607388790526
9.49508654259e-06
0.0607329521051
5.92684610637e-06
0.060721062265
1.18897094649e-05
0.0607285097942
-7.4476664966e-06
0.0607223193147
6.19031581924e-06
0.0607262467587
-3.92757897864e-06
0.0607234490089
2.79752946607e-06
0.0607251974841
-1.74854008668e-06
0.0607240916497
1.10575572574e-06
0.0607247150131
-6.23373393559e-07
0.0607243863811
3.28545447665e-07
0.0607245115613
-1.2517667925e-07
0.060724486101
2.54607574948e-08
0.0607244510586
3.50046630144e-08
0.0607245013965
-5.02951258481e-08
0.0607244407763
6.05611261051e-08
0.0607244920601
-5.12223874734e-08
0.0607244435214
4.84754186432e-08
0.0607244684381
-2.48865375863e-08
0.0607244422402
2.61255818689e-08
0.0607244536644
-1.14307635265e-08
0.0607244401677
1.34095037571e-08
0.0607244415727
-1.51297995746e-09
0.0607244353668
5.98577941017e-09
0.060724432352
2.53716881634e-09
0.0607244273412
4.65729594563e-09
0.0607244245813
2.41335037584e-09
0.0607244205063
3.76715553151e-09
0.0607244190723
1.30347020067e-09
0.0607244183373
6.97087542658e-10
0.0607244143785
3.93984821855e-09
0.0607244055828
8.81944722904e-09
0.0607243961969
9.34858378507e-09
0.0607243895077
6.66251106092e-09
0.0607243859962
3.44739623332e-09
0.0607243841334
1.83837332975e-09
0.0607243830919
1.00379184266e-09
0.0607243830195
3.50061495106e-10
0.0607243839513
-1.67814787965e-10
0.0607243848653
-6.27492895543e-10
0.0607243859444
-9.6993224651e-10
0.0607243871883
-1.18482797305e-09
0.0607243884714
-1.24030923446e-09
0.0607243895972
-1.09058180009e-09
0.0607243902742
-6.46797358178e-10
2.17515404136e-10
0.0607243900849
0.0529381110263
-0.035540572844
0.0534336906056
-0.00125149602736
0.0535009586431
-3.17153238252e-05
0.053426398045
6.69924456415e-05
0.0534815546599
-4.56619059653e-05
0.053428958561
5.85217262544e-05
0.0534569034374
-1.60573740991e-05
0.053433332104
1.61211520243e-05
0.0534508464988
-1.13272152488e-05
0.0534369391188
9.97606469591e-06
0.0534474587989
-7.72520979252e-06
0.0534393757429
6.33388091047e-06
0.0534454445409
-4.96455021531e-06
0.0534408982974
3.92267710304e-06
0.0534442469549
-3.02184825231e-06
0.0534417966408
2.32511261741e-06
0.0534435535682
-1.73149753e-06
0.0534423082233
1.27925307668e-06
0.0534431689701
-9.10999217637e-07
0.05344257802
6.50653036347e-07
0.0534429732419
-4.44822995045e-07
0.0534427100161
3.10784123867e-07
0.0534428700875
-1.84114103732e-07
0.0534427635477
1.31316727769e-07
0.0534428232403
-7.12435669171e-08
0.0534427817168
5.25426997763e-08
0.0534427983381
-1.87356163086e-08
0.0534427845477
1.93496896051e-08
0.0534427869558
1.48437812042e-11
0.0534427693867
1.08678530473e-08
0.0534427372298
3.23238318205e-09
0.0534427326813
7.56968418726e-09
0.053442731265
2.01360566463e-09
0.0534427285252
1.47540695467e-09
0.0534427070569
8.04915283906e-09
0.0534426879435
1.63707244302e-08
0.0534426802925
1.62707961616e-08
0.0534426741572
1.19331523109e-08
0.0534427295865
6.00921630482e-09
0.0534427386976
3.1452089169e-09
0.0534427390697
1.81555728361e-09
0.0534427395327
6.51385159035e-10
0.0534427401224
-1.88081406424e-10
0.0534427408368
-1.01182504945e-09
0.0534427414995
-1.59979433532e-09
0.0534427421403
-1.99383501946e-09
0.0534427426526
-2.08048146776e-09
0.0534427430151
-1.84326251502e-09
0.0534427430206
-1.04953476851e-09
5.33597232986e-10
0.0534427423852
0.045574678859
-0.047790007625
0.0459774670826
-0.00165428283018
0.046000870129
-5.51168341575e-05
0.0459628717174
0.000104991450724
0.0459902400488
-7.3031829517e-05
0.0459661218114
8.26365250054e-05
0.0459768223559
-2.67633198834e-05
0.0459668139355
2.61241725615e-05
0.0459741298194
-1.86521721245e-05
0.0459681895368
1.59146723682e-05
0.0459726789849
-1.22156177e-05
0.0459691814007
9.8325068798e-06
0.0459718231516
-7.61197808344e-06
0.0459698078782
5.93288307973e-06
0.0459713047323
-4.52038974584e-06
0.0459701911071
3.4380154173e-06
0.0459709989462
-2.54037588094e-06
0.0459704143354
1.86148525986e-06
0.0459708278822
-1.31949171788e-06
0.0459705439342
9.35792534281e-07
0.0459707414165
-6.39295134113e-07
0.045970607096
4.43458497234e-07
0.0459706886122
-2.65306272503e-07
0.045970629283
1.8712256444e-07
0.0459706079036
-1.03373501939e-07
0.0459705851842
7.4147723712e-08
0.0459706039127
-2.81579309421e-08
0.045970608334
2.65020588542e-08
0.0459706192724
-1.74177692148e-09
0.0459706150667
1.47225855487e-08
0.0459706136985
3.55343048676e-09
0.0459706101509
1.02449149721e-08
0.0459705665706
2.27067723957e-09
0.0459705647495
1.94311103212e-09
0.0459705598711
1.17747971324e-08
0.0459705527972
2.26919309359e-08
0.0459705473242
2.09299290676e-08
0.0459705442533
1.42289551276e-08
0.0459705970496
6.46077373107e-09
0.0459706021961
3.00999044972e-09
0.0459706037919
1.75445170867e-09
0.0459706064564
3.84633118517e-10
0.0459706090242
-5.67749217314e-10
0.0459706115045
-1.62682275484e-09
0.0459706137182
-2.3762804084e-09
0.0459706157397
-2.9086909511e-09
0.0459706174046
-2.97528357343e-09
0.0459706187483
-2.67153597851e-09
0.0459706195976
-1.6374595034e-09
4.577293148e-10
0.045970619744
0.0385330786294
-0.0561396241074
0.0388050888483
-0.00192629181805
0.0387951182266
-4.51449231749e-05
0.0387767211751
0.00012338917759
0.0387853972375
-8.17088580812e-05
0.0387809292064
8.71016974305e-05
0.0387819764911
-2.78158343882e-05
0.0387802485117
2.78461756904e-05
0.0387814457259
-1.98612500454e-05
0.038780394008
1.69639557615e-05
0.0387811786453
-1.30025850767e-05
0.0387805438925
1.04749212662e-05
0.0387810416863
-8.10977191989e-06
0.0387806438804
6.33067173533e-06
0.0387809451433
-4.82857572513e-06
0.0387806920269
3.68099011952e-06
0.0387808749463
-2.72487118806e-06
0.0387807307086
2.00388624401e-06
0.0387808466279
-1.42403586339e-06
0.0387807699152
1.01314920759e-06
0.0387808293477
-6.96290290843e-07
0.0387807853749
4.85806379281e-07
0.0387808126817
-2.91767198129e-07
0.0387807894428
2.07843893531e-07
0.0387807757677
-1.14144565887e-07
0.038780740022
8.44960773977e-08
0.038780741675
-3.16332103811e-08
0.0387807370108
2.94402386564e-08
0.0387807370253
-2.72187123772e-09
0.0387807309247
1.71623453237e-08
0.0387807297774
3.28982153699e-09
0.0387807271268
1.22127159334e-08
0.0387807265865
2.55506496719e-09
0.0387807490645
1.67223269933e-09
0.0387807698161
1.53500997218e-08
0.0387807675435
2.73218692496e-08
0.0387807653228
2.33476031436e-08
0.0387807644823
1.49869699192e-08
0.0387807645245
5.9264974046e-09
0.0387807646661
2.47200745628e-09
0.0387807643932
1.51644454626e-09
0.0387807645363
1.47553436698e-10
0.0387807647782
-7.60781374752e-10
0.0387807654043
-1.96021889013e-09
0.0387807660965
-2.73963665965e-09
0.0387807670265
-3.41717241398e-09
0.0387807679236
-3.48682609846e-09
0.0387807688224
-3.16904583419e-09
0.0387807695358
-2.07304249858e-09
3.68331629735e-10
0.0387807699127
0.0320618329371
-0.0608635811211
0.0321785180671
-0.00204297590849
0.0321487412631
-1.53671431506e-05
0.0321423601502
0.000129770702239
0.0321379528843
-7.73027406008e-05
0.0321455585225
7.94931189513e-05
0.0321417485143
-2.40109296294e-05
0.0321445910395
2.49933174419e-05
0.0321423943588
-1.76694120064e-05
0.0321441066137
1.52536402533e-05
0.0321427903497
-1.16834306591e-05
0.0321437945697
9.47129423486e-06
0.0321430358598
-7.3529784424e-06
0.0321435854049
5.77274422862e-06
0.0321431719803
-4.4210251735e-06
0.0321434609698
3.3909737202e-06
0.0321432564138
-2.52123856038e-06
0.0321434004942
1.86910488311e-06
0.0321433105529
-1.33366075708e-06
0.032143367214
9.54276770614e-07
0.0321433322322
-6.61517896416e-07
0.0321433459209
4.66427346644e-07
0.0321433282747
-2.80134144218e-07
0.0321433196772
2.03331032554e-07
0.0321433143968
-1.09544709972e-07
0.0321432986268
8.59749738156e-08
0.0321433060561
-3.08138328022e-08
0.0321433054719
2.97183161096e-08
0.0321432887871
-2.32620609219e-09
0.0321432869903
1.82697515543e-08
0.0321432870216
2.60565740789e-09
0.0321432854743
1.31414855372e-08
0.0321433086864
1.75377687127e-09
0.0321433294532
-9.62394190309e-11
0.0321433268213
1.76735045832e-08
0.0321433256228
3.03828025035e-08
0.0321433262609
2.39312131758e-08
0.0321433272884
1.48713545457e-08
0.0321433284219
5.11673908994e-09
0.0321433290279
1.91169664683e-09
0.0321433287668
1.26771055008e-09
0.0321433284795
-4.36344638678e-11
0.0321433277991
-8.14124940314e-10
0.0321433272119
-2.07281305925e-09
0.0321433263951
-2.76784680319e-09
0.0321433257609
-3.55379236825e-09
0.032143325117
-3.66097435823e-09
0.032143324651
-3.43797481816e-09
0.0321433241841
-2.39142264031e-09
1.66067708731e-10
0.032143323633
0.0262595648254
-0.0623625848092
0.0262156235822
-0.00199903386373
0.026190217995
1.0038501345e-05
0.0261938062164
0.000126181587645
0.0261818243181
-6.53226462517e-05
0.0261955488616
6.57660998543e-05
0.0261898726112
-1.83384998018e-05
0.026194866932
1.99911511513e-05
0.0261911308059
-1.39363283047e-05
0.0261941513398
1.2234193712e-05
0.0261918370956
-9.36791506232e-06
0.0261936421171
7.66732958172e-06
0.0261922668503
-5.97877387122e-06
0.0261933069908
4.73279982921e-06
0.0261925295622
-3.6456657092e-06
0.0261930898734
2.82063116006e-06
0.0261926766243
-2.10887036055e-06
0.0261929670821
1.58038674841e-06
0.0261927688282
-1.13353446387e-06
0.0261929034447
8.16999897278e-07
0.0261928097745
-5.71599228821e-07
0.0261928540703
4.09428571456e-07
0.0261928167763
-2.44562862884e-07
0.0261928361153
1.82360233206e-07
0.0261928229369
-9.57204284894e-08
0.0261928268338
8.05972269442e-08
0.0261928237205
-2.72327097271e-08
0.0261928253218
2.78416391406e-08
0.0261928251481
-1.01538220185e-09
0.0261928265014
1.8158050209e-08
0.0261928320411
1.22051631295e-09
0.0261928392574
1.30989682678e-08
0.0261928437809
1.68777088513e-10
0.0261928478234
-2.71301292722e-09
0.0261928474133
1.91220734799e-08
0.0261928466065
3.21445868e-08
0.0261928479667
2.31600879579e-08
0.0261928490441
1.42927505472e-08
0.0261928502762
4.1046110286e-09
0.0261928510351
1.29086239164e-09
0.0261928510396
9.90892253667e-10
0.0261928511878
-2.28466546379e-10
0.0261928508881
-7.80017464662e-10
0.0261928507675
-2.06743351455e-09
0.026192850283
-2.58221683752e-09
0.0261928499353
-3.37375905011e-09
0.0261928495283
-3.51738802105e-09
0.0261928495035
-3.53946888797e-09
0.0261928495763
-2.64189082921e-09
-9.44928632731e-11
0.0261928497841
0.0211495144326
-0.061085873129
0.0209678774187
-0.00181739596607
0.0209642867385
1.36293752088e-05
0.0209770976357
0.000113369344109
0.0209623016005
-5.0529413595e-05
0.0209780080709
5.00568578908e-05
0.0209720846196
-1.24186838562e-05
0.0209776548041
1.44177433169e-05
0.0209735516872
-9.83601324047e-06
0.0209769286864
8.8567709529e-06
0.0209743390263
-6.77934291059e-06
0.0209763804426
5.62696000988e-06
0.0209748144199
-4.41465816609e-06
0.0209760107391
3.53478510633e-06
0.0209751048131
-2.74361103806e-06
0.0209757757599
2.1482526977e-06
0.0209752833072
-1.61608562491e-06
0.0209756356648
1.22749449612e-06
0.0209753894622
-8.86546722813e-07
0.0209755583355
6.44806452588e-07
0.0209754412365
-4.55090482186e-07
0.0209755137361
3.33248624017e-07
0.0209754657494
-1.96681545315e-07
0.0209754943891
1.51862508473e-07
0.0209754763755
-7.72274308895e-08
0.0209754856548
7.04519671016e-08
0.0209754829106
-2.19971877505e-08
0.0209754913514
2.41328717289e-08
0.0209754913759
4.08291653822e-10
0.0209754944221
1.69283346906e-08
0.0209754985573
-3.89590706339e-10
0.0209755013146
1.24425004128e-08
0.0209755050665
-1.34099725663e-09
0.0209755097346
-5.30898640266e-09
0.0209755110098
1.9725839453e-08
0.0209755125716
3.25154108859e-08
0.0209755164506
2.10725310479e-08
0.0209755225391
7.29756890393e-09
0.020975525595
3.11259133112e-09
0.0209755281957
6.86794069371e-10
0.0209755299042
7.54652758747e-10
0.020975531806
-3.86258732656e-10
0.0209755331894
-6.73864034359e-10
0.0209755349834
-1.97910500947e-09
0.020975536536
-2.27799239701e-09
0.0209755384237
-2.95728396159e-09
0.0209755403195
-3.05923372022e-09
0.0209755429399
-3.48422070337e-09
0.0209755457417
-2.81585777942e-09
-3.99095839379e-10
0.0209755487731
0.0167232636111
-0.0574971731253
0.016449394576
-0.00154352632104
0.0164645390751
-1.51502407072e-06
0.01648334713
9.45599260467e-05
0.0164688376087
-3.60228145154e-05
0.0164838766062
3.50132018581e-05
0.0164785699482
-7.11368657015e-06
0.0164837636005
9.22332876334e-06
0.0164799899625
-6.06362911962e-06
0.0164831451721
5.69889511789e-06
0.0164807236312
-4.35929232689e-06
0.0164826502107
3.69992172063e-06
0.0164811634558
-2.92950451378e-06
0.0164823130312
2.38584937873e-06
0.0164814405056
-1.87171342937e-06
0.0164820984364
1.49076793234e-06
0.0164816129618
-1.13001340801e-06
0.0164819659742
8.73307880236e-07
0.0164817163814
-6.36101930612e-07
0.0164818906801
4.68826885328e-07
0.0164817712674
-3.33843825773e-07
0.016481852678
2.51317976801e-07
0.0164818042901
-1.45526621842e-07
0.0164818394978
1.17590298913e-07
0.0164818231908
-5.73102769651e-08
0.0164818380948
5.7698931877e-08
0.0164818362727
-1.6031569016e-08
0.0164818440589
1.93910431155e-08
0.0164818471666
1.6503123696e-09
0.0164818527251
1.49601795519e-08
0.0164818582465
-1.67287206033e-09
0.0164818629608
1.15121541238e-08
0.0164818681061
-2.58094815739e-09
0.0164818740681
-7.55058188051e-09
0.016481877981
1.93057426602e-08
0.0164818826884
3.13562241168e-08
0.0164818887836
1.82283847755e-08
0.0164818962567
4.68006879581e-09
0.0164819008234
2.05280904698e-09
0.0164819050611
1.53652918375e-10
0.0164819084128
5.66096434324e-10
0.0164819121692
-5.26465710842e-10
0.0164819154229
-5.48750373943e-10
0.0164819192638
-1.84214899851e-09
0.0164819227801
-1.9050749731e-09
0.0164819266043
-2.39673615985e-09
0.0164819301132
-2.35891738086e-09
0.0164819342523
-3.2072049241e-09
0.0164819383333
-2.85747434284e-09
-6.65990616602e-10
0.0164819425079
0.0129474621058
-0.0520476091917
0.0126296187772
-0.00122568297722
0.0126494667806
-2.13639174426e-05
0.0126709706505
7.30546996933e-05
0.0126579669948
-2.302193799e-05
0.0126707758491
2.22015708566e-05
0.0126665090732
-2.84874795638e-06
0.0126708098397
4.92206349762e-06
0.0126677297871
-2.98452751936e-06
0.0126703531241
3.07534144715e-06
0.0126683422893
-2.34953573965e-06
0.0126699606078
2.08195988885e-06
0.0126687066497
-1.67617791856e-06
0.0126696877174
1.40633266815e-06
0.0126689395823
-1.12292348602e-06
0.0126695129589
9.19462208405e-07
0.0126690901821
-7.04613368492e-07
0.012669406461
5.58542356375e-07
0.0126691854228
-4.10935766579e-07
0.0126693466969
3.09179177538e-07
0.0126692407051
-2.22801885463e-07
0.0126693209826
1.73842662364e-07
0.0126692790142
-9.76010130463e-08
0.0126693167997
8.39816806667e-08
0.0126693046951
-3.84399837705e-08
0.0126693235129
4.41411696298e-08
0.0126693246556
-1.00815348599e-08
0.0126693353169
1.45133347313e-08
0.0126693411746
2.62217427318e-09
0.012669349315
1.25834068209e-08
0.0126693562665
-2.50171704606e-09
0.0126693629706
1.01790038716e-08
0.0126693692519
-3.63311804347e-09
0.0126693755688
-9.05184561925e-09
0.0126693815123
1.77255633612e-08
0.0126693886629
2.84585748518e-08
0.012669395848
1.47003298511e-08
0.0126694012776
2.97898112506e-09
0.0126694051363
1.12496059513e-09
0.0126694088489
-3.14927679629e-10
0.0126694115867
3.85581928978e-10
0.0126694146323
-6.73031332664e-10
0.0126694167571
-4.27797732885e-10
0.0126694191508
-1.66393339903e-09
0.0126694207063
-1.47850610383e-09
0.0126694223551
-1.78537298592e-09
0.0126694232775
-1.51586710956e-09
0.0126694247051
-2.64977973419e-09
0.0126694260801
-2.66374905117e-09
-8.83863816418e-10
0.0126694279383
0.00976609230544
-0.045151079707
0.00944400753261
-0.000903598245493
0.00945745639733
-3.4813947319e-05
0.00947929899834
5.1209265648e-05
0.00946825952539
-1.19842480029e-05
0.00947827631494
1.21840565878e-05
0.0094752552367
1.71567418684e-07
0.00947845121805
1.72585899319e-06
0.00947621360267
-7.47358501165e-07
0.00947816761573
1.12217486738e-06
0.00947667376972
-8.55064411087e-07
0.00947789644302
8.61849085567e-07
0.00947694780945
-7.25527481177e-07
0.0094777042423
6.54373217984e-07
0.00947712862586
-5.43351173676e-07
0.00947758228644
4.71295801188e-07
0.00947725239545
-3.6848882659e-07
0.00947751020419
3.06041724597e-07
0.00947733543057
-2.28353722419e-07
0.00947747199269
1.77930688122e-07
0.00947738814061
-1.30660152744e-07
0.00947746001907
1.07704065461e-07
0.00947742799116
-5.73475849243e-08
0.00947746365664
5.41973126198e-08
0.00947745535884
-2.24425258861e-08
0.00947747385713
3.11735273063e-08
0.00947747533013
-4.89998922627e-09
0.00947748460151
9.98596795422e-09
0.00947748932197
3.1463172949e-09
0.009477495685
9.94418987302e-09
0.00947749921301
-2.30782914371e-09
0.00947750430797
7.76715124152e-09
0.00947750733507
-4.32741582912e-09
0.0094775095093
-9.44323495e-09
0.00947751357071
1.48878644021e-08
0.00947751939546
2.3720502548e-08
0.00947752350985
1.09990547503e-08
0.00947752566693
1.39451738543e-09
0.00947752626133
2.98581605678e-10
0.00947752685178
-7.01567623639e-10
0.00947752651853
2.2745385855e-10
0.00947752671699
-8.47590948523e-10
0.00947752594746
-3.31418854334e-10
0.00947752560875
-1.47265220614e-09
0.00947752438901
-1.05472153267e-09
0.0094775234749
-1.19294473849e-09
0.00947752177054
-6.98462114538e-10
0.00947752052135
-1.87540482112e-09
0.00947751913886
-2.2139166499e-09
-1.05247307365e-09
0.00947751859966
0.00711315692968
-0.0371725057797
0.00681722953649
-0.000607670865062
0.00681949123603
-3.7076885599e-05
0.00683946630946
3.12322135202e-05
0.00683107111779
-3.59029026361e-06
0.00683816962186
5.08533236341e-06
0.0068364090299
1.93236671536e-06
0.00683847192944
-3.3567350053e-07
0.00683708836952
6.38002598365e-07
0.00683835410305
-1.39854205589e-07
0.00683739481222
1.0833264312e-07
0.0068382057934
5.72722798644e-08
0.00683757953321
-9.31348746715e-08
0.00683809702669
1.45166510522e-07
0.0068377074371
-1.46425638668e-07
0.00683802826943
1.58475823153e-07
0.00683779949953
-1.31918102353e-07
0.00683798662295
1.2481740062e-07
0.00683786153125
-9.6020429809e-08
0.00683796220704
8.1131478136e-08
0.00683789882963
-6.15288047268e-08
0.00683795281777
5.62032374702e-08
0.00683792668434
-2.71313198026e-08
0.00683795185819
3.02185219212e-08
0.00683794232355
-1.04877671986e-08
0.00683795367913
1.97805241531e-08
0.0068379506505
-1.03706860026e-09
0.00683795338563
6.14505802093e-09
0.0068379528628
3.09946429135e-09
0.00683795371356
7.17125015976e-09
0.00683795173385
-2.02472070736e-09
0.00683795178312
5.2722109638e-09
0.00683794944618
-4.46900107771e-09
0.0068379458582
-8.54040574476e-09
0.00683794706464
1.0762962808e-08
0.00683795078984
1.72787130373e-08
0.00683795140813
7.27613936604e-09
0.00683795016315
2.73456391539e-11
0.00683794773345
-4.27335638817e-10
0.00683794561644
-1.00425339382e-09
0.00683794288475
9.67349367e-12
0.00683794084803
-9.56750137572e-10
0.00683793803939
-2.99351998402e-10
0.00683793584276
-1.2744495293e-09
0.00683793283901
-6.90113607473e-10
0.00683793041865
-6.99911059945e-10
0.00683792723583
-2.15032073252e-11
0.006837924544
-1.04695481744e-09
0.00683792153161
-1.50300277657e-09
-1.147387761e-09
0.00683791972837
0.00492244832092
-0.0284260163013
0.0046739347983
-0.000359157771096
0.00466529078653
-2.84341877167e-05
0.00468134281496
1.51794564662e-05
0.0046765528366
1.19980918129e-06
0.00468087810067
7.61492622468e-07
0.00468026805505
2.54513979686e-06
0.00468127437207
-1.3372277465e-06
0.00468067422743
1.24399876574e-06
0.00468130088298
-7.58890153592e-07
0.00468083756028
5.78996965743e-07
0.00468126116035
-3.58089010323e-07
0.00468093438608
2.40042323466e-07
0.00468121991101
-1.33696900817e-07
0.00468100157502
7.60334086594e-08
0.0046811869964
-2.35995253261e-08
0.00468104965755
7.49423001637e-09
0.0046811597866
1.4270424716e-08
0.00468107860317
-1.43339020711e-08
0.00468113724375
1.97291002184e-08
0.00468109182618
-1.69609104583e-08
0.00468112328249
2.1085697954e-08
0.00468110209688
-7.74617089863e-09
0.00468111526212
1.29431923433e-08
0.00468110542435
-3.12171856182e-09
0.00468111034961
1.05456771075e-08
0.00468110519005
1.17286982904e-09
0.00468110383476
3.19846910629e-09
0.00468110128794
2.37279342178e-09
0.00468110021772
4.1307148215e-09
0.00468109636044
-1.6062400809e-09
0.00468109544107
2.42540193833e-09
0.00468109120185
-3.6653347871e-09
0.00468108564762
-6.30417022537e-09
0.00468108764929
5.47612204429e-09
0.00468109260608
9.48466630304e-09
0.00468109333839
3.52676807002e-09
0.00468109220192
-1.14737248449e-09
0.00468109007808
-9.84612913081e-10
0.00468108849801
-1.21066355041e-09
0.00468108647403
-2.7542055647e-10
0.00468108514398
-1.04770473719e-09
0.00468108302716
-3.67282514876e-10
0.00468108146704
-1.07807694732e-09
0.00468107898265
-3.80713241246e-10
0.0046810772517
-3.44055455668e-10
0.00468107470802
4.30498489554e-10
0.00468107263733
-2.79845222722e-10
0.00468106999094
-6.62049397816e-10
-1.07314530966e-09
0.00468106862626
0.00313065523886
-0.0191763910617
0.00294220762957
-0.000170711054593
0.00292837756555
-1.46045873952e-05
0.00293888177413
4.67608100234e-06
0.00293751072378
2.5736666794e-06
0.00293939666143
-1.11942174831e-06
0.00293977392222
2.17436270592e-06
0.0029398582748
-1.41426590052e-06
0.00293992637349
1.18235356458e-06
0.0029399931322
-8.19986665435e-07
0.0029399516717
6.2366361948e-07
0.00294003028833
-4.34458617216e-07
0.00293995766878
3.12183629947e-07
0.00294003367994
-2.10358181242e-07
0.00293996260821
1.44305851024e-07
0.00294002516427
-8.90490099399e-08
0.00293996951323
5.98587509723e-08
0.00294001151322
-3.23493972325e-08
0.002939973364
2.09323933039e-08
0.00293999704654
-9.06164385704e-09
0.00293997289192
4.58846689642e-09
0.00293998756852
1.73164716957e-09
0.00293997607292
1.29120316487e-09
0.00293998244089
2.36404252181e-09
0.00293997725143
-2.34956001589e-10
0.00293998040726
3.75044012061e-09
0.00293997800425
1.62471509767e-09
0.00293997709437
1.17122660569e-09
0.00293997667773
1.01727095374e-09
0.00293997743992
9.43454233131e-10
0.0029399754821
-1.42623922857e-09
0.0029399720292
8.07047740136e-10
0.00293996474324
-8.89641867861e-10
0.00293995616807
-2.15661100476e-09
0.0029399567283
4.99991185849e-11
0.00293996031497
1.57041463294e-09
0.00293995883474
8.3446780156e-10
0.002939955656
-1.24198863571e-09
0.00293995213164
-7.68263411257e-10
0.00293995004767
-9.60595113993e-10
0.00293994802059
-3.02044296852e-10
0.00293994649359
-7.85421803328e-10
0.00293994377357
-1.58440828532e-10
0.00293994172327
-6.08943128008e-10
0.00293994007827
-6.10930565987e-11
0.00293994022683
-3.3688308199e-10
0.00293994027121
2.3798270526e-10
0.00293994278721
-1.88117778096e-10
0.00293994698454
-3.0662116003e-10
-2.91954478183e-10
0.00293994947514
0.00168006786598
-0.00964334587697
0.00155724587554
-4.78900485388e-05
0.00154631241539
-3.6695849237e-06
0.00155073610996
2.56375112287e-07
0.00155183365915
1.48193200768e-06
0.00155163067188
-9.10931156655e-07
0.00155279486392
1.01407620776e-06
0.00155210301599
-7.20490867861e-07
0.00155270774919
5.77445484168e-07
0.00155230702151
-4.20453059512e-07
0.00155260901846
3.19051361291e-07
0.00155240315706
-2.31018631424e-07
0.0015525427846
1.6900528815e-07
0.00155244920073
-1.19416065766e-07
0.00155250534599
8.45645658374e-08
0.0015524701755
-5.68227399765e-08
0.0015524878822
3.93407182399e-08
0.00155247695821
-2.48483991781e-08
0.00155247959927
1.67017410458e-08
0.00155247729682
-9.82691649212e-09
0.00155247511455
6.11095214287e-09
0.00155247602619
-2.73831417368e-09
0.00155247334542
2.12814685656e-09
0.00155247214454
-7.89395292548e-10
0.00155246728254
2.37273690873e-10
0.00155246610908
4.63908545853e-10
0.00155246690157
6.80456042906e-10
0.00155246682414
2.59063153894e-10
0.00155246607467
2.28586303986e-10
0.00155245956783
-2.04704639927e-10
0.00155245542828
-7.16181819982e-10
0.00155245485603
2.11092553343e-10
0.00155245958178
2.86501764724e-10
0.0015524688074
4.4409561845e-10
0.00155246512294
-6.72618976039e-10
0.00155243991216
-9.32975526662e-10
0.00155244070468
-3.29951790454e-11
0.00155243987372
-4.82006891877e-10
0.00155243963856
-6.87300621964e-11
0.00155243844929
-3.35155024876e-10
0.00155243647417
6.87132333482e-11
0.00155243626259
-2.88792554206e-10
0.00155243513219
1.17872541505e-10
0.00155243589353
-1.46583701912e-10
0.00155243542069
1.7671122657e-10
0.00155243446571
-2.13095699372e-10
0.00155243308221
1.57170178287e-10
0.001552432708
-1.40712842177e-10
0.0015524321247
-3.28533069323e-11
3.80354317422e-12
0.00155243172625
0.000512635998494
0.000464744229809
0.000461079737115
0.000461333677792
0.000462819027153
0.000461904631415
0.000462920624937
0.000462197173079
0.000462775621704
0.000462353020271
0.000462672350022
0.000462439862708
0.000462608595976
0.000462488078368
0.000462572193453
0.000462514361067
0.000462553471133
0.000462527609873
0.000462544050275
0.000462533359438
0.000462539481549
0.000462535966058
0.00046253793775
0.000462536600235
0.000462536377497
0.0004625367463
0.000462535604303
0.000462535819619
0.00046253464074
0.000462535042683
0.000462534349972
0.000462534644437
0.000462536493716
0.00046253687944
0.000462535465212
0.00046253457865
0.000462534903229
0.000462534970962
0.000462535160077
0.000462535058311
0.000462535013753
0.000462535047636
0.000462535089588
0.000462535102393
0.000462534967108
0.000462534782407
0.000462534622119
0.000462534393138
0.000462534106885
0.000462533892716
0.0607243887492
1.36166024639e-09
0.0607243860615
2.71685849485e-09
0.0607243817838
4.3003621738e-09
0.0607243756577
6.14209029358e-09
0.0607243672739
8.38721308648e-09
0.0607243560058
1.12509434549e-08
0.0607243407833
1.52048847115e-08
0.0607243201292
2.06866975186e-08
0.0607242922219
2.79587517244e-08
0.0607242551882
3.71183008826e-08
0.0607242068216
4.8443609689e-08
0.0607241450268
6.18660860034e-08
0.0607240679808
7.70932495959e-08
0.0607239747956
9.3234442525e-08
0.0607238655899
1.09237573761e-07
0.0607237418972
1.23738140575e-07
0.0607236071476
1.34782135704e-07
0.0607234672923
1.39893778805e-07
0.060723331559
1.35759118109e-07
0.0607232129319
1.18665386916e-07
0.0607231290279
8.39298888446e-08
0.0607231042177
2.48495385089e-08
0.0607231704465
-6.62074934738e-08
0.0607233660523
-1.95575833428e-07
0.0607237349865
-3.68928494351e-07
0.0607243283599
-5.93366909345e-07
0.0607252059718
-8.77651170065e-07
0.060726436646
-1.23062653042e-06
0.0607280959986
-1.65954307109e-06
0.0607302681815
-2.17199375982e-06
0.060733040134
-2.77184913893e-06
0.0607365013954
-3.46117429486e-06
0.0607407406001
-4.23915751611e-06
0.0607458420238
-5.10136388452e-06
0.0607518808816
-6.03882211357e-06
0.0607589182657
-7.03732414086e-06
0.0607669949242
-8.07661814877e-06
0.060776124731
-9.12974147555e-06
0.0607862872976
-1.01625225642e-05
0.0607974203657
-1.11330007639e-05
0.0608094115192
-1.19911090829e-05
0.0608220901638
-1.26785792662e-05
0.0608352192617
-1.31290581742e-05
0.0608484871357
-1.32678174777e-05
0.0608615007536
-1.30135907433e-05
0.0608737775057
-1.22767120444e-05
0.0608847458564
-1.09683397262e-05
0.0608937336111
-8.98772642902e-06
0.0608999512519
-6.21764181282e-06
0.0609024837795
-2.53237106725e-06
0.0609003075616
2.17639359969e-06
0.0608923153561
7.99241423733e-06
0.0608773394795
1.49761054315e-05
0.0608541382932
2.32013866259e-05
0.0608213937744
3.27447284331e-05
0.0607777240376
4.36699222144e-05
0.0607217063409
5.60178979902e-05
0.0606519012551
6.98052693233e-05
0.0605668779285
8.50235303152e-05
0.0604652403588
0.00010163776143
0.0603456545507
0.000119586023818
0.0602068757357
0.000138779023674
0.0600477754142
0.000159100555732
0.059867367262
0.000180408379834
0.0596648319149
0.00020253559406
0.0594395395425
0.000225292602449
0.0591910695374
0.000248470234342
0.0589192257435
0.000271843977768
0.0586240493569
0.000295176913853
0.0583058281014
0.000318221162925
0.0579650969776
0.000340731929252
0.0576026278081
0.000362470022559
0.0572194262566
0.000383202342521
0.0568167159948
0.000402710954805
0.056395918076
0.000420798545083
0.055958626042
0.00043729260761
0.0555065782242
0.000452048379446
0.0550416267959
0.000464951980781
0.0545657068405
0.000475920517919
0.000484908224184
0.0540807991775
0.0534427407131
2.73527698228e-09
0.0534427379954
5.32758166408e-09
0.0534427338304
8.23630564876e-09
0.053442728158
1.16498342931e-08
0.0534427205373
1.55555439483e-08
0.0534427108628
2.05224613379e-08
0.0534426983236
2.73734475973e-08
0.0534426827089
3.7131772765e-08
0.0534426609453
5.00973998947e-08
0.0534426321973
6.66423486094e-08
0.0534425943804
8.69615958e-08
0.0534425458788
1.11006752318e-07
0.0534424850686
1.38312074014e-07
0.0534424112837
1.67427391984e-07
0.0534423246324
1.96124312718e-07
0.0534422266249
2.22073237677e-07
0.0534421196707
2.41857028999e-07
0.0534420090127
2.50803540111e-07
0.0534419013541
2.43395055414e-07
0.0534418070947
2.13089652918e-07
0.0534417397056
1.51197622265e-07
0.0534417179618
4.66718523838e-08
0.0534417657478
-1.14239726359e-07
0.0534419137222
-3.43687184689e-07
0.0534421967774
-6.52481438306e-07
0.0534426562315
-1.05320656467e-06
0.0534433382468
-1.5604426118e-06
0.0534443014413
-2.19006628344e-06
0.0534455921164
-2.95650128057e-06
0.0534472904816
-3.87025713327e-06
0.0534494592256
-4.94087755369e-06
0.0534521703595
-6.17234101619e-06
0.0534554942087
-7.56331803011e-06
0.0534594988712
-9.10602505925e-06
0.0534642446233
-1.07847986307e-05
0.0534697822469
-1.25747835826e-05
0.0534761455691
-1.4439946332e-05
0.0534833489225
-1.63326952578e-05
0.0534913787174
-1.81920890785e-05
0.0535001899778
-1.99436564982e-05
0.0535096971419
-2.14978716403e-05
0.0535197709221
-2.27516425368e-05
0.05353022696
-2.35846391871e-05