/*--------------------------------*- C++ -*----------------------------------*\
  =========                 |
  \\      /  F ield         | OpenFOAM: The Open Source CFD Toolbox
   \\    /   O peration     | Website:  https://openfoam.org
    \\  /    A nd           | Version:  9
     \\/     M anipulation  |
\*---------------------------------------------------------------------------*/
FoamFile
{
    format      ascii;
    class       volTensorField;
    location    "120";
    object      eigVecs.water;
}
// * * * * * * * * * * * * * * * * * * * * * * * * * * * * * * * * * * * * * //

dimensions      [0 0 0 0 0 0 0];

internalField   nonuniform List<tensor> 
12230
(
(0.10364142895 0 0.994614726517 0.994614726517 0 -0.10364142895 0 1 0)
(0.282732111751 0 0.959198912106 0.959198912106 0 -0.282732111751 0 1 0)
(0.535546725588 0 0.844505597798 0.844505597798 0 -0.535546725588 0 1 0)
(0.628527442347 0 0.777787409398 0.777787409398 0 -0.628527442347 0 1 0)
(0.659246309042 0 0.751927060302 0.751927060302 0 -0.659246309042 0 1 0)
(0.66045717195 0 0.750863718673 0.750863718673 0 -0.66045717195 0 1 0)
(0.66434137097 0 0.74742928951 0.74742928951 0 -0.66434137097 0 1 0)
(0.661978060047 0 0.749523213794 0.749523213794 0 -0.661978060047 0 1 0)
(0.663937835307 0 0.747787771262 0.747787771262 0 -0.663937835307 0 1 0)
(0.66248961878 0 0.749071094762 0.749071094762 0 -0.66248961878 0 1 0)
(0.663583629696 0 0.748102109608 0.748102109608 0 -0.663583629696 0 1 0)
(0.662774408513 0 0.748819125971 0.748819125971 0 -0.662774408513 0 1 0)
(0.663362084432 0 0.748298566708 0.748298566708 0 -0.663362084432 0 1 0)
(0.662936110379 0 0.748675973673 0.748675973673 0 -0.662936110379 0 1 0)
(0.663237617048 0 0.748408887796 0.748408887796 0 -0.663237617048 0 1 0)
(0.663027837468 0 0.748594741327 0.748594741327 0 -0.663027837468 0 1 0)
(0.663171487017 0 0.748467486807 0.748467486807 0 -0.663171487017 0 1 0)
(0.6630747646 0 0.7485531755 0.7485531755 0 -0.6630747646 0 1 0)
(0.663138572029 0 0.748496649483 0.748496649483 0 -0.663138572029 0 1 0)
(0.663097257781 0 0.748533250246 0.748533250246 0 -0.663097257781 0 1 0)
(0.663123218954 0 0.748510251423 0.748510251423 0 -0.663123218954 0 1 0)
(0.663107331039 0 0.748524326607 0.748524326607 0 -0.663107331039 0 1 0)
(0.663117283972 0 0.748515509323 0.748515509323 0 -0.663117283972 0 1 0)
(0.663111482702 0 0.748520648686 0.748520648686 0 -0.663111482702 0 1 0)
(0.663114915576 0 0.748517607502 0.748517607502 0 -0.663114915576 0 1 0)
(0.663113208298 0 0.748519119984 0.748519119984 0 -0.663113208298 0 1 0)
(0.663114385362 0 0.748518077221 0.748518077221 0 -0.663114385362 0 1 0)
(0.663113829423 0 0.748518569728 0.748518569728 0 -0.663113829423 0 1 0)
(0.663114081111 0 0.748518346758 0.748518346758 0 -0.663114081111 0 1 0)
(0.663113779231 0 0.748518614193 0.748518614193 0 -0.663113779231 0 1 0)
(0.663113813553 0 0.748518583787 0.748518583787 0 -0.663113813553 0 1 0)
(0.663113982952 0 0.748518433717 0.748518433717 0 -0.663113982952 0 1 0)
(0.663113956618 0 0.748518457046 0.748518457046 0 -0.663113956618 0 1 0)
(0.663113829814 0 0.748518569382 0.748518569382 0 -0.663113829814 0 1 0)
(0.663114025782 0 0.748518395773 0.748518395773 0 -0.663114025782 0 1 0)
(0.663114634164 0 0.748517856806 0.748517856806 0 -0.663114634164 0 1 0)
(0.663115476019 0 0.748517111003 0.748517111003 0 -0.663115476019 0 1 0)
(0.663115591093 0 0.748517009058 0.748517009058 0 -0.663115591093 0 1 0)
(0.663115453123 0 0.748517131286 0.748517131286 0 -0.663115453123 0 1 0)
(0.663115181452 0 0.748517371961 0.748517371961 0 -0.663115181452 0 1 0)
(0.663114862754 0 0.748517654298 0.748517654298 0 -0.663114862754 0 1 0)
(0.663114544433 0 0.748517936299 0.748517936299 0 -0.663114544433 0 1 0)
(0.66311423812 0 0.748518207662 0.748518207662 0 -0.66311423812 0 1 0)
(0.663113952567 0 0.748518460634 0.748518460634 0 -0.663113952567 0 1 0)
(0.663113692697 0 0.748518690854 0.748518690854 0 -0.663113692697 0 1 0)
(0.663113453067 0 0.748518903142 0.748518903142 0 -0.663113453067 0 1 0)
(0.663113268154 0 0.748519066957 0.748519066957 0 -0.663113268154 0 1 0)
(0.66311307533 0 0.74851923778 0.74851923778 0 -0.66311307533 0 1 0)
(0.663113022181 0 0.748519284864 0.748519284864 0 -0.663113022181 0 1 0)
(0.663113072593 0 0.748519240205 0.748519240205 0 -0.663113072593 0 1 0)
(0.262953987906 0 0.964808374883 0.964808374883 0 -0.262953987906 0 1 0)
(0.450851856016 0 0.892598792251 0.892598792251 0 -0.450851856016 0 1 0)
(0.553215896187 0 0.833037917628 0.833037917628 0 -0.553215896187 0 1 0)
(0.572683306888 0 0.819776695211 0.819776695211 0 -0.572683306888 0 1 0)
(0.577304777637 0 0.816528746412 0.816528746412 0 -0.577304777637 0 1 0)
(0.577343968329 0 0.816501036272 0.816501036272 0 -0.577343968329 0 1 0)
(0.578287149457 0 0.815833299623 0.815833299623 0 -0.578287149457 0 1 0)
(0.577383948599 0 0.816472764947 0.816472764947 0 -0.577383948599 0 1 0)
(0.577927908577 0 0.816087821553 0.816087821553 0 -0.577927908577 0 1 0)
(0.577444908769 0 0.816429652412 0.816429652412 0 -0.577444908769 0 1 0)
(0.577753161248 0 0.816211544067 0.816211544067 0 -0.577753161248 0 1 0)
(0.577503907248 0 0.816387920729 0.816387920729 0 -0.577503907248 0 1 0)
(0.577668019619 0 0.816271804677 0.816271804677 0 -0.577668019619 0 1 0)
(0.577543877701 0 0.816359644599 0.816359644599 0 -0.577543877701 0 1 0)
(0.577625753741 0 0.816301714206 0.816301714206 0 -0.577625753741 0 1 0)
(0.577567174097 0 0.816343162773 0.816343162773 0 -0.577567174097 0 1 0)
(0.57760522378 0 0.816316241087 0.816316241087 0 -0.57760522378 0 1 0)
(0.577579102058 0 0.816334723546 0.816334723546 0 -0.577579102058 0 1 0)
(0.577595638123 0 0.816323023576 0.816323023576 0 -0.577595638123 0 1 0)
(0.57758486228 0 0.816330648 0.816330648 0 -0.57758486228 0 1 0)
(0.577591391253 0 0.816326028466 0.816326028466 0 -0.577591391253 0 1 0)
(0.5775874068 0 0.816328847651 0.816328847651 0 -0.5775874068 0 1 0)
(0.577589890406 0 0.816327090388 0.816327090388 0 -0.577589890406 0 1 0)
(0.57758845559 0 0.816328105586 0.816328105586 0 -0.57758845559 0 1 0)
(0.577589288845 0 0.81632751602 0.81632751602 0 -0.577589288845 0 1 0)
(0.577588915241 0 0.816327780362 0.816327780362 0 -0.577588915241 0 1 0)
(0.577589247589 0 0.816327545211 0.816327545211 0 -0.577589247589 0 1 0)
(0.577589129335 0 0.816327628881 0.816327628881 0 -0.577589129335 0 1 0)
(0.577589207116 0 0.816327573847 0.816327573847 0 -0.577589207116 0 1 0)
(0.577589135739 0 0.81632762435 0.81632762435 0 -0.577589135739 0 1 0)
(0.577589147167 0 0.816327616264 0.816327616264 0 -0.577589147167 0 1 0)
(0.577589231128 0 0.816327556857 0.816327556857 0 -0.577589231128 0 1 0)
(0.577589234008 0 0.81632755482 0.81632755482 0 -0.577589234008 0 1 0)
(0.577589183202 0 0.816327590767 0.816327590767 0 -0.577589183202 0 1 0)
(0.577589243527 0 0.816327548085 0.816327548085 0 -0.577589243527 0 1 0)
(0.577589459225 0 0.816327395469 0.816327395469 0 -0.577589459225 0 1 0)
(0.577589724636 0 0.816327207678 0.816327207678 0 -0.577589724636 0 1 0)
(0.577589870888 0 0.816327104197 0.816327104197 0 -0.577589870888 0 1 0)
(0.577589842255 0 0.816327124457 0.816327124457 0 -0.577589842255 0 1 0)
(0.577589763404 0 0.816327180247 0.816327180247 0 -0.577589763404 0 1 0)
(0.577589681113 0 0.816327238472 0.816327238472 0 -0.577589681113 0 1 0)
(0.577589597441 0 0.816327297674 0.816327297674 0 -0.577589597441 0 1 0)
(0.577589513315 0 0.816327357197 0.816327357197 0 -0.577589513315 0 1 0)
(0.57758942898 0 0.816327416868 0.816327416868 0 -0.57758942898 0 1 0)
(0.577589346306 0 0.816327475364 0.816327475364 0 -0.577589346306 0 1 0)
(0.577589263524 0 0.816327533936 0.816327533936 0 -0.577589263524 0 1 0)
(0.577589194891 0 0.816327582497 0.816327582497 0 -0.577589194891 0 1 0)
(0.577589121285 0 0.816327634577 0.816327634577 0 -0.577589121285 0 1 0)
(0.577589073247 0 0.816327668565 0.816327668565 0 -0.577589073247 0 1 0)
(0.577589073135 0 0.816327668645 0.816327668645 0 -0.577589073135 0 1 0)
(0.361257479268 0 0.93246610323 0.93246610323 0 -0.361257479268 0 1 0)
(0.468216668284 0 0.883613689087 0.883613689087 0 -0.468216668284 0 1 0)
(0.505084498229 0 0.863069898472 0.863069898472 0 -0.505084498229 0 1 0)
(0.508628307939 0 0.860986204514 0.860986204514 0 -0.508628307939 0 1 0)
(0.507991735896 0 0.861361942659 0.861361942659 0 -0.507991735896 0 1 0)
(0.50521287355 0 0.862994758037 0.862994758037 0 -0.50521287355 0 1 0)
(0.505679916944 0 0.862721172569 0.862721172569 0 -0.505679916944 0 1 0)
(0.50480817881 0 0.863231546346 0.863231546346 0 -0.50480817881 0 1 0)
(0.505160182219 0 0.863025602343 0.863025602343 0 -0.505160182219 0 1 0)
(0.504759155493 0 0.863260212767 0.863260212767 0 -0.504759155493 0 1 0)
(0.504973596424 0 0.863134790699 0.863134790699 0 -0.504973596424 0 1 0)
(0.504783285007 0 0.863246103482 0.863246103482 0 -0.504783285007 0 1 0)
(0.504899746486 0 0.863177992072 0.863177992072 0 -0.504899746486 0 1 0)
(0.504807200284 0 0.863232118576 0.863232118576 0 -0.504807200284 0 1 0)
(0.50486580145 0 0.863197846688 0.863197846688 0 -0.50486580145 0 1 0)
(0.504822664463 0 0.863223075134 0.863223075134 0 -0.504822664463 0 1 0)
(0.504850316464 0 0.863206903336 0.863206903336 0 -0.504850316464 0 1 0)
(0.504830904145 0 0.863218256422 0.863218256422 0 -0.504830904145 0 1 0)
(0.504843144 0 0.863211098142 0.863211098142 0 -0.504843144 0 1 0)
(0.504834980954 0 0.863215872193 0.863215872193 0 -0.504834980954 0 1 0)
(0.504839971251 0 0.863212953695 0.863212953695 0 -0.504839971251 0 1 0)
(0.504836840373 0 0.863214784745 0.863214784745 0 -0.504836840373 0 1 0)
(0.50483882385 0 0.863213624738 0.863213624738 0 -0.50483882385 0 1 0)
(0.504837664083 0 0.863214303011 0.863214303011 0 -0.504837664083 0 1 0)
(0.504838343155 0 0.863213905866 0.863213905866 0 -0.504838343155 0 1 0)
(0.504837999151 0 0.863214107052 0.863214107052 0 -0.504837999151 0 1 0)
(0.504838279634 0 0.863213943015 0.863213943015 0 -0.504838279634 0 1 0)
(0.504838172713 0 0.863214005547 0.863214005547 0 -0.504838172713 0 1 0)
(0.504838267274 0 0.863213950244 0.863213950244 0 -0.504838267274 0 1 0)
(0.504838248231 0 0.863213961381 0.863213961381 0 -0.504838248231 0 1 0)
(0.504838267389 0 0.863213950177 0.863213950177 0 -0.504838267389 0 1 0)
(0.504838360986 0 0.863213895438 0.863213895438 0 -0.504838360986 0 1 0)
(0.504838395152 0 0.863213875456 0.863213875456 0 -0.504838395152 0 1 0)
(0.504838355978 0 0.863213898367 0.863213898367 0 -0.504838355978 0 1 0)
(0.504838374527 0 0.863213887519 0.863213887519 0 -0.504838374527 0 1 0)
(0.504838505295 0 0.863213811041 0.863213811041 0 -0.504838505295 0 1 0)
(0.504838686305 0 0.86321370518 0.86321370518 0 -0.504838686305 0 1 0)
(0.504838805717 0 0.863213635343 0.863213635343 0 -0.504838805717 0 1 0)
(0.504838828571 0 0.863213621977 0.863213621977 0 -0.504838828571 0 1 0)
(0.504838825161 0 0.863213623972 0.863213623972 0 -0.504838825161 0 1 0)
(0.50483882277 0 0.86321362537 0.86321362537 0 -0.50483882277 0 1 0)
(0.504838807052 0 0.863213634562 0.863213634562 0 -0.504838807052 0 1 0)
(0.504838779553 0 0.863213650645 0.863213650645 0 -0.504838779553 0 1 0)
(0.504838748312 0 0.863213668916 0.863213668916 0 -0.504838748312 0 1 0)
(0.504838712083 0 0.863213690103 0.863213690103 0 -0.504838712083 0 1 0)
(0.504838666207 0 0.863213716934 0.863213716934 0 -0.504838666207 0 1 0)
(0.5048386197 0 0.863213744132 0.863213744132 0 -0.5048386197 0 1 0)
(0.504838567859 0 0.863213774451 0.863213774451 0 -0.504838567859 0 1 0)
(0.504838509638 0 0.863213808501 0.863213808501 0 -0.504838509638 0 1 0)
(0.504838484794 0 0.863213823031 0.863213823031 0 -0.504838484794 0 1 0)
(0.433313252427 0 0.90124337738 0.90124337738 0 -0.433313252427 0 1 0)
(0.440857160026 0 0.897577274921 0.897577274921 0 -0.440857160026 0 1 0)
(0.45624033169 0 0.889856595042 0.889856595042 0 -0.45624033169 0 1 0)
(0.450404091955 0 0.892824817055 0.892824817055 0 -0.450404091955 0 1 0)
(0.449381299916 0 0.893340051316 0.893340051316 0 -0.449381299916 0 1 0)
(0.44666684078 0 0.894700359533 0.894700359533 0 -0.44666684078 0 1 0)
(0.447261752518 0 0.89440311087 0.89440311087 0 -0.447261752518 0 1 0)
(0.44639997041 0 0.894833541178 0.894833541178 0 -0.44639997041 0 1 0)
(0.446815150344 0 0.894626302667 0.894626302667 0 -0.446815150344 0 1 0)
(0.446415353604 0 0.894825866896 0.894825866896 0 -0.446415353604 0 1 0)
(0.446657081995 0 0.894705231405 0.894705231405 0 -0.446657081995 0 1 0)
(0.446461583579 0 0.894802801956 0.894802801956 0 -0.446461583579 0 1 0)
(0.446589917268 0 0.894738758407 0.894738758407 0 -0.446589917268 0 1 0)
(0.446493978328 0 0.894786637873 0.894786637873 0 -0.446493978328 0 1 0)
(0.446558422653 0 0.894754477584 0.894754477584 0 -0.446558422653 0 1 0)
(0.446512435672 0 0.894777427515 0.894777427515 0 -0.446512435672 0 1 0)
(0.446543303615 0 0.894762023108 0.894762023108 0 -0.446543303615 0 1 0)
(0.446522043245 0 0.894772633073 0.894772633073 0 -0.446522043245 0 1 0)
(0.446536096587 0 0.894765619838 0.894765619838 0 -0.446536096587 0 1 0)
(0.446526765067 0 0.894770276707 0.894770276707 0 -0.446526765067 0 1 0)
(0.446532723987 0 0.894767302939 0.894767302939 0 -0.446532723987 0 1 0)
(0.446528951189 0 0.89476918574 0.89476918574 0 -0.446528951189 0 1 0)
(0.446531397006 0 0.894767965166 0.894767965166 0 -0.446531397006 0 1 0)
(0.446529968517 0 0.894768678048 0.894768678048 0 -0.446529968517 0 1 0)
(0.446530851186 0 0.894768237556 0.894768237556 0 -0.446530851186 0 1 0)
(0.446530367707 0 0.894768478835 0.894768478835 0 -0.446530367707 0 1 0)
(0.446530696179 0 0.894768314912 0.894768314912 0 -0.446530696179 0 1 0)
(0.446530538294 0 0.894768393704 0.894768393704 0 -0.446530538294 0 1 0)
(0.446530653045 0 0.894768336437 0.894768336437 0 -0.446530653045 0 1 0)
(0.446530638257 0 0.894768343817 0.894768343817 0 -0.446530638257 0 1 0)
(0.446530655798 0 0.894768335064 0.894768335064 0 -0.446530655798 0 1 0)
(0.446530758896 0 0.894768283613 0.894768283613 0 -0.446530758896 0 1 0)
(0.44653085529 0 0.894768235508 0.894768235508 0 -0.44653085529 0 1 0)
(0.446530840395 0 0.894768242941 0.894768242941 0 -0.446530840395 0 1 0)
(0.44653083772 0 0.894768244276 0.894768244276 0 -0.44653083772 0 1 0)
(0.446530979266 0 0.894768173638 0.894768173638 0 -0.446530979266 0 1 0)
(0.446531166223 0 0.894768080338 0.894768080338 0 -0.446531166223 0 1 0)
(0.44653129349 0 0.894768016826 0.894768016826 0 -0.44653129349 0 1 0)
(0.446531322808 0 0.894768002194 0.894768002194 0 -0.446531322808 0 1 0)
(0.446531331377 0 0.894767997918 0.894767997918 0 -0.446531331377 0 1 0)
(0.446531338597 0 0.894767994315 0.894767994315 0 -0.446531338597 0 1 0)
(0.446531344622 0 0.894767991309 0.894767991309 0 -0.446531344622 0 1 0)
(0.446531343659 0 0.894767991789 0.894767991789 0 -0.446531343659 0 1 0)
(0.446531332944 0 0.894767997136 0.894767997136 0 -0.446531332944 0 1 0)
(0.446531318292 0 0.894768004448 0.894768004448 0 -0.446531318292 0 1 0)
(0.446531292413 0 0.894768017363 0.894768017363 0 -0.446531292413 0 1 0)
(0.446531255803 0 0.894768035633 0.894768035633 0 -0.446531255803 0 1 0)
(0.446531211837 0 0.894768057575 0.894768057575 0 -0.446531211837 0 1 0)
(0.446531144145 0 0.894768091356 0.894768091356 0 -0.446531144145 0 1 0)
(0.446531086809 0 0.894768119969 0.894768119969 0 -0.446531086809 0 1 0)
(0.470455948769 0 0.882423481254 0.882423481254 0 -0.470455948769 0 1 0)
(0.409730508979 0 0.912206615856 0.912206615856 0 -0.409730508979 0 1 0)
(0.412711386239 0 0.910861851034 0.910861851034 0 -0.412711386239 0 1 0)
(0.403732542803 0 0.914877059436 0.914877059436 0 -0.403732542803 0 1 0)
(0.403237679528 0 0.915095281274 0.915095281274 0 -0.403237679528 0 1 0)
(0.400793281799 0 0.916168513574 0.916168513574 0 -0.400793281799 0 1 0)
(0.401466097379 0 0.915873884689 0.915873884689 0 -0.401466097379 0 1 0)
(0.400571209171 0 0.916265630908 0.916265630908 0 -0.400571209171 0 1 0)
(0.401037512755 0 0.916061631858 0.916061631858 0 -0.401037512755 0 1 0)
(0.400620339501 0 0.916244150638 0.916244150638 0 -0.400620339501 0 1 0)
(0.400885779422 0 0.916128043375 0.916128043375 0 -0.400885779422 0 1 0)
(0.400679891332 0 0.916218109777 0.916218109777 0 -0.400679891332 0 1 0)
(0.400819345474 0 0.916157111141 0.916157111141 0 -0.400819345474 0 1 0)
(0.400717304011 0 0.916201747579 0.916201747579 0 -0.400717304011 0 1 0)
(0.400787311387 0 0.916171125408 0.916171125408 0 -0.400787311387 0 1 0)
(0.400737769598 0 0.916192796314 0.916192796314 0 -0.400737769598 0 1 0)
(0.400771780796 0 0.916177919248 0.916177919248 0 -0.400771780796 0 1 0)
(0.400748264063 0 0.91618820602 0.91618820602 0 -0.400748264063 0 1 0)
(0.400763938431 0 0.916181349763 0.916181349763 0 -0.400763938431 0 1 0)
(0.400753556139 0 0.916185891204 0.916185891204 0 -0.400753556139 0 1 0)
(0.400760336033 0 0.916182925546 0.916182925546 0 -0.400760336033 0 1 0)
(0.400755996318 0 0.916184823829 0.916184823829 0 -0.400755996318 0 1 0)
(0.400758822827 0 0.916183587457 0.916183587457 0 -0.400758822827 0 1 0)
(0.400757159616 0 0.916184314981 0.916184314981 0 -0.400757159616 0 1 0)
(0.400758228313 0 0.916183847511 0.916183847511 0 -0.400758228313 0 1 0)
(0.400757654854 0 0.916184098353 0.916184098353 0 -0.400757654854 0 1 0)
(0.400758051989 0 0.916183924638 0.916183924638 0 -0.400758051989 0 1 0)
(0.400757868797 0 0.91618400477 0.91618400477 0 -0.400757868797 0 1 0)
(0.400758005223 0 0.916183945095 0.916183945095 0 -0.400758005223 0 1 0)
(0.400757983163 0 0.916183954744 0.916183954744 0 -0.400757983163 0 1 0)
(0.400757991908 0 0.916183950919 0.916183950919 0 -0.400757991908 0 1 0)
(0.400758087654 0 0.916183909038 0.916183909038 0 -0.400758087654 0 1 0)
(0.400758203262 0 0.916183858468 0.916183858468 0 -0.400758203262 0 1 0)
(0.400758181282 0 0.916183868083 0.916183868083 0 -0.400758181282 0 1 0)
(0.40075815047 0 0.916183881561 0.916183881561 0 -0.40075815047 0 1 0)
(0.400758330332 0 0.916183802885 0.916183802885 0 -0.400758330332 0 1 0)
(0.400758507719 0 0.916183725292 0.916183725292 0 -0.400758507719 0 1 0)
(0.400758648663 0 0.91618366364 0.91618366364 0 -0.400758648663 0 1 0)
(0.400758693356 0 0.916183644091 0.916183644091 0 -0.400758693356 0 1 0)
(0.400758696143 0 0.916183642872 0.916183642872 0 -0.400758696143 0 1 0)
(0.400758704808 0 0.916183639082 0.916183639082 0 -0.400758704808 0 1 0)
(0.400758716979 0 0.916183633758 0.916183633758 0 -0.400758716979 0 1 0)
(0.400758728969 0 0.916183628513 0.916183628513 0 -0.400758728969 0 1 0)
(0.400758731939 0 0.916183627214 0.916183627214 0 -0.400758731939 0 1 0)
(0.400758731303 0 0.916183627492 0.916183627492 0 -0.400758731303 0 1 0)
(0.400758722529 0 0.91618363133 0.91618363133 0 -0.400758722529 0 1 0)
(0.400758695353 0 0.916183643217 0.916183643217 0 -0.400758695353 0 1 0)
(0.400758653059 0 0.916183661718 0.916183661718 0 -0.400758653059 0 1 0)
(0.400758577443 0 0.916183694794 0.916183694794 0 -0.400758577443 0 1 0)
(0.400758484106 0 0.916183735621 0.916183735621 0 -0.400758484106 0 1 0)
(0.49058649447 0 0.87139250137 0.87139250137 0 -0.49058649447 0 1 0)
(0.380973027805 0 0.924586151792 0.924586151792 0 -0.380973027805 0 1 0)
(0.37660546725 0 0.926373748569 0.926373748569 0 -0.37660546725 0 1 0)
(0.366628717243 0 0.930367338041 0.930367338041 0 -0.366628717243 0 1 0)
(0.366843157447 0 0.930282805298 0.930282805298 0 -0.366843157447 0 1 0)
(0.364587703759 0 0.931169053539 0.931169053539 0 -0.364587703759 0 1 0)
(0.36544486874 0 0.930832986046 0.930832986046 0 -0.36544486874 0 1 0)
(0.364564202033 0 0.931178255006 0.931178255006 0 -0.364564202033 0 1 0)
(0.365096762183 0 0.930969577507 0.930969577507 0 -0.365096762183 0 1 0)
(0.36466992706 0 0.931136855837 0.931136855837 0 -0.36466992706 0 1 0)
(0.364960379712 0 0.931023050864 0.931023050864 0 -0.364960379712 0 1 0)
(0.364745890757 0 0.931107101883 0.931107101883 0 -0.364745890757 0 1 0)
(0.364895744314 0 0.931048385306 0.931048385306 0 -0.364895744314 0 1 0)
(0.3647886273 0 0.931090359413 0.931090359413 0 -0.3647886273 0 1 0)
(0.364863387673 0 0.931061065847 0.931061065847 0 -0.364863387673 0 1 0)
(0.364811044356 0 0.931081576402 0.931081576402 0 -0.364811044356 0 1 0)
(0.364847214051 0 0.93106740379 0.93106740379 0 -0.364847214051 0 1 0)
(0.364822433873 0 0.931077113747 0.931077113747 0 -0.364822433873 0 1 0)
(0.364839298308 0 0.931070505606 0.931070505606 0 -0.364839298308 0 1 0)
(0.364828062701 0 0.931074908192 0.931074908192 0 -0.364828062701 0 1 0)
(0.364835418592 0 0.931072025861 0.931072025861 0 -0.364835418592 0 1 0)
(0.364830643952 0 0.931073896763 0.931073896763 0 -0.364830643952 0 1 0)
(0.364833753982 0 0.931072678127 0.931072678127 0 -0.364833753982 0 1 0)
(0.364831909368 0 0.931073400923 0.931073400923 0 -0.364831909368 0 1 0)
(0.364833132878 0 0.931072921502 0.931072921502 0 -0.364833132878 0 1 0)
(0.364832494773 0 0.931073171538 0.931073171538 0 -0.364832494773 0 1 0)
(0.364832962287 0 0.931072988347 0.931072988347 0 -0.364832962287 0 1 0)
(0.36483277289 0 0.93107306256 0.93107306256 0 -0.36483277289 0 1 0)
(0.364832940514 0 0.931072996878 0.931072996878 0 -0.364832940514 0 1 0)
(0.364832928164 0 0.931073001718 0.931073001718 0 -0.364832928164 0 1 0)
(0.364832941651 0 0.931072996433 0.931072996433 0 -0.364832941651 0 1 0)
(0.364833042838 0 0.931072956784 0.931072956784 0 -0.364833042838 0 1 0)
(0.364833133424 0 0.931072921288 0.931072921288 0 -0.364833133424 0 1 0)
(0.364833060569 0 0.931072949836 0.931072949836 0 -0.364833060569 0 1 0)
(0.364832991804 0 0.931072976781 0.931072976781 0 -0.364832991804 0 1 0)
(0.364833153284 0 0.931072913506 0.931072913506 0 -0.364833153284 0 1 0)
(0.36483333371 0 0.931072842808 0.931072842808 0 -0.36483333371 0 1 0)
(0.364833474669 0 0.931072787574 0.931072787574 0 -0.364833474669 0 1 0)
(0.36483354289 0 0.931072760842 0.931072760842 0 -0.36483354289 0 1 0)
(0.364833552819 0 0.931072756952 0.931072756952 0 -0.364833552819 0 1 0)
(0.364833567117 0 0.931072751349 0.931072751349 0 -0.364833567117 0 1 0)
(0.36483358842 0 0.931072743002 0.931072743002 0 -0.36483358842 0 1 0)
(0.36483360803 0 0.931072735318 0.931072735318 0 -0.36483360803 0 1 0)
(0.364833624054 0 0.931072729039 0.931072729039 0 -0.364833624054 0 1 0)
(0.364833633708 0 0.931072725256 0.931072725256 0 -0.364833633708 0 1 0)
(0.36483364244 0 0.931072721834 0.931072721834 0 -0.36483364244 0 1 0)
(0.364833631172 0 0.93107272625 0.93107272625 0 -0.364833631172 0 1 0)
(0.36483359438 0 0.931072740666 0.931072740666 0 -0.36483359438 0 1 0)
(0.364833519571 0 0.93107276998 0.93107276998 0 -0.364833519571 0 1 0)
(0.364833395348 0 0.931072818655 0.931072818655 0 -0.364833395348 0 1 0)
(0.49973497766 0 0.866178360445 0.866178360445 0 -0.49973497766 0 1 0)
(0.355442430074 0 0.934698175297 0.934698175297 0 -0.355442430074 0 1 0)
(0.34679275316 0 0.937941781965 0.937941781965 0 -0.34679275316 0 1 0)
(0.337001116239 0 0.941504247284 0.941504247284 0 -0.337001116239 0 1 0)
(0.338012878125 0 0.941141484699 0.941141484699 0 -0.338012878125 0 1 0)
(0.335883259998 0 0.941903623336 0.941903623336 0 -0.335883259998 0 1 0)
(0.336935480723 0 0.941527738216 0.941527738216 0 -0.336935480723 0 1 0)
(0.336052090308 0 0.941843401314 0.941843401314 0 -0.336052090308 0 1 0)
(0.336648317339 0 0.941630453221 0.941630453221 0 -0.336648317339 0 1 0)
(0.336201800613 0 0.941789970888 0.941789970888 0 -0.336201800613 0 1 0)
(0.336517185427 0 0.941677324731 0.941677324731 0 -0.336517185427 0 1 0)
(0.336289895936 0 0.941758517822 0.941758517822 0 -0.336289895936 0 1 0)
(0.336450711329 0 0.941701077225 0.941701077225 0 -0.336450711329 0 1 0)
(0.336336882832 0 0.941741738083 0.941741738083 0 -0.336336882832 0 1 0)
(0.336416686159 0 0.941713233035 0.941713233035 0 -0.336416686159 0 1 0)
(0.336361042053 0 0.941733109426 0.941733109426 0 -0.336361042053 0 1 0)
(0.33639957285 0 0.941719346401 0.941719346401 0 -0.33639957285 0 1 0)
(0.336373174616 0 0.941728775922 0.941728775922 0 -0.336373174616 0 1 0)
(0.336391194956 0 0.941722339098 0.941722339098 0 -0.336391194956 0 1 0)
(0.336379198163 0 0.941726624368 0.941726624368 0 -0.336379198163 0 1 0)
(0.336387114779 0 0.941723796562 0.941723796562 0 -0.336387114779 0 1 0)
(0.336381959334 0 0.941725638089 0.941725638089 0 -0.336381959334 0 1 0)
(0.336385332261 0 0.941724433282 0.941724433282 0 -0.336385332261 0 1 0)
(0.336383317379 0 0.941725152998 0.941725152998 0 -0.336383317379 0 1 0)
(0.336384659963 0 0.941724673427 0.941724673427 0 -0.336384659963 0 1 0)
(0.336383954817 0 0.941724925306 0.941724925306 0 -0.336383954817 0 1 0)
(0.336384480111 0 0.94172473767 0.94172473767 0 -0.336384480111 0 1 0)
(0.336384269885 0 0.941724812763 0.941724812763 0 -0.336384269885 0 1 0)
(0.336384464751 0 0.941724743157 0.941724743157 0 -0.336384464751 0 1 0)
(0.336384449894 0 0.941724748464 0.941724748464 0 -0.336384449894 0 1 0)
(0.336384462175 0 0.941724744077 0.941724744077 0 -0.336384462175 0 1 0)
(0.336384543919 0 0.941724714878 0.941724714878 0 -0.336384543919 0 1 0)
(0.336384620053 0 0.941724687683 0.941724687683 0 -0.336384620053 0 1 0)
(0.336384504002 0 0.941724729136 0.941724729136 0 -0.336384504002 0 1 0)
(0.336384394656 0 0.941724768195 0.941724768195 0 -0.336384394656 0 1 0)
(0.336384537071 0 0.941724717324 0.941724717324 0 -0.336384537071 0 1 0)
(0.336384750786 0 0.941724640985 0.941724640985 0 -0.336384750786 0 1 0)
(0.336384872626 0 0.941724597464 0.941724597464 0 -0.336384872626 0 1 0)
(0.336384912776 0 0.941724583122 0.941724583122 0 -0.336384912776 0 1 0)
(0.336384926217 0 0.941724578321 0.941724578321 0 -0.336384926217 0 1 0)
(0.336384949543 0 0.941724569989 0.941724569989 0 -0.336384949543 0 1 0)
(0.336384980738 0 0.941724558846 0.941724558846 0 -0.336384980738 0 1 0)
(0.336385015257 0 0.941724546516 0.941724546516 0 -0.336385015257 0 1 0)
(0.336385049349 0 0.941724534338 0.941724534338 0 -0.336385049349 0 1 0)
(0.336385081255 0 0.941724522941 0.941724522941 0 -0.336385081255 0 1 0)
(0.336385105078 0 0.941724514432 0.941724514432 0 -0.336385105078 0 1 0)
(0.336385116906 0 0.941724510207 0.941724510207 0 -0.336385116906 0 1 0)
(0.336385087865 0 0.94172452058 0.94172452058 0 -0.336385087865 0 1 0)
(0.336385011278 0 0.941724547937 0.941724547937 0 -0.336385011278 0 1 0)
(0.336384855869 0 0.941724603449 0.941724603449 0 -0.336384855869 0 1 0)
(0.502244738146 0 0.864725518882 0.864725518882 0 -0.502244738146 0 1 0)
(0.333940884842 0 0.942594019412 0.942594019412 0 -0.333940884842 0 1 0)
(0.322421379232 0 0.946596246672 0.946596246672 0 -0.322421379232 0 1 0)
(0.313130230319 0 0.949710197303 0.949710197303 0 -0.313130230319 0 1 0)
(0.314935323179 0 0.949113134571 0.949113134571 0 -0.314935323179 0 1 0)
(0.312895981055 0 0.949787399916 0.949787399916 0 -0.312895981055 0 1 0)
(0.314122857419 0 0.94938234155 0.94938234155 0 -0.314122857419 0 1 0)
(0.313202441751 0 0.94968638533 0.94968638533 0 -0.313202441751 0 1 0)
(0.313859650596 0 0.949469388515 0.949469388515 0 -0.313859650596 0 1 0)
(0.313380729329 0 0.949627568305 0.949627568305 0 -0.313380729329 0 1 0)
(0.313723477483 0 0.949514391506 0.949514391506 0 -0.313723477483 0 1 0)
(0.313478297178 0 0.949595364984 0.949595364984 0 -0.313478297178 0 1 0)
(0.313652150497 0 0.949537955265 0.949537955265 0 -0.313652150497 0 1 0)
(0.313529500766 0 0.949578460239 0.949578460239 0 -0.313529500766 0 1 0)
(0.313615421029 0 0.949550086985 0.949550086985 0 -0.313615421029 0 1 0)
(0.313555666394 0 0.949569820536 0.949569820536 0 -0.313555666394 0 1 0)
(0.313596980735 0 0.949556177208 0.949556177208 0 -0.313596980735 0 1 0)
(0.313568778613 0 0.949565490674 0.949565490674 0 -0.313568778613 0 1 0)
(0.313588012913 0 0.949559138841 0.949559138841 0 -0.313588012913 0 1 0)
(0.313575120078 0 0.94956339655 0.94956339655 0 -0.313575120078 0 1 0)
(0.3135836519 0 0.949560579037 0.949560579037 0 -0.3135836519 0 1 0)
(0.313578137196 0 0.9495624002 0.9495624002 0 -0.313578137196 0 1 0)
(0.313581771488 0 0.949561200024 0.949561200024 0 -0.313581771488 0 1 0)
(0.313579593963 0 0.949561919124 0.949561919124 0 -0.313579593963 0 1 0)
(0.313581039274 0 0.949561441829 0.949561441829 0 -0.313581039274 0 1 0)
(0.313580263331 0 0.949561698074 0.949561698074 0 -0.313580263331 0 1 0)
(0.313580832976 0 0.949561509956 0.949561509956 0 -0.313580832976 0 1 0)
(0.313580583482 0 0.949561592348 0.949561592348 0 -0.313580583482 0 1 0)
(0.313580786685 0 0.949561525243 0.949561525243 0 -0.313580786685 0 1 0)
(0.313580757776 0 0.94956153479 0.94956153479 0 -0.313580757776 0 1 0)
(0.313580765063 0 0.949561532384 0.949561532384 0 -0.313580765063 0 1 0)
(0.313580826199 0 0.949561512194 0.949561512194 0 -0.313580826199 0 1 0)
(0.313580917742 0 0.949561481963 0.949561481963 0 -0.313580917742 0 1 0)
(0.313580777639 0 0.94956152823 0.94956152823 0 -0.313580777639 0 1 0)
(0.313580622584 0 0.949561579435 0.949561579435 0 -0.313580622584 0 1 0)
(0.313580758976 0 0.949561534394 0.949561534394 0 -0.313580758976 0 1 0)
(0.313580997671 0 0.949561455567 0.949561455567 0 -0.313580997671 0 1 0)
(0.313581116581 0 0.949561416299 0.949561416299 0 -0.313581116581 0 1 0)
(0.313581144903 0 0.949561406946 0.949561406946 0 -0.313581144903 0 1 0)
(0.313581164534 0 0.949561400463 0.949561400463 0 -0.313581164534 0 1 0)
(0.313581202606 0 0.94956138789 0.94956138789 0 -0.313581202606 0 1 0)
(0.313581245592 0 0.949561373695 0.949561373695 0 -0.313581245592 0 1 0)
(0.313581292317 0 0.949561358264 0.949561358264 0 -0.313581292317 0 1 0)
(0.313581335772 0 0.949561343914 0.949561343914 0 -0.313581335772 0 1 0)
(0.313581369354 0 0.949561332824 0.949561332824 0 -0.313581369354 0 1 0)
(0.313581399186 0 0.949561322972 0.949561322972 0 -0.313581399186 0 1 0)
(0.313581430306 0 0.949561312695 0.949561312695 0 -0.313581430306 0 1 0)
(0.313581410146 0 0.949561319353 0.949561319353 0 -0.313581410146 0 1 0)
(0.313581332431 0 0.949561345017 0.949561345017 0 -0.313581332431 0 1 0)
(0.313581155191 0 0.949561403549 0.949561403549 0 -0.313581155191 0 1 0)
(0.501601743883 0 0.865098659422 0.865098659422 0 -0.501601743883 0 1 0)
(0.315344533678 0 0.94897725214 0.94897725214 0 -0.315344533678 0 1 0)
(0.302572713793 0 0.953126304782 0.953126304782 0 -0.302572713793 0 1 0)
(0.293970831955 0 0.955814390957 0.955814390957 0 -0.293970831955 0 1 0)