/*--------------------------------*- C++ -*----------------------------------*\
  =========                 |
  \\      /  F ield         | OpenFOAM: The Open Source CFD Toolbox
   \\    /   O peration     | Website:  https://openfoam.org
    \\  /    A nd           | Version:  9
     \\/     M anipulation  |
\*---------------------------------------------------------------------------*/
FoamFile
{
    format      ascii;
    class       volTensorField;
    location    "120";
    object      eigVals.water;
}
// * * * * * * * * * * * * * * * * * * * * * * * * * * * * * * * * * * * * * //

dimensions      [0 0 0 0 0 0 0];

internalField   nonuniform List<tensor> 
12230
(
(0.77458671616 0 0 0 1 0 0 0 1.36427368131)
(0.862019822506 0 0 0 1 0 0 0 1.21649757612)
(0.896106205432 0 0 0 1 0 0 0 1.13879601515)
(0.896449545715 0 0 0 1 0 0 0 1.13919412376)
(0.892858996035 0 0 0 1 0 0 0 1.13456120366)
(0.892917032676 0 0 0 1 0 0 0 1.13797165635)
(0.892413179502 0 0 0 1 0 0 0 1.1363658178)
(0.892648397859 0 0 0 1 0 0 0 1.13764143527)
(0.892308383921 0 0 0 1 0 0 0 1.13668463387)
(0.892541739662 0 0 0 1 0 0 0 1.13739061712)
(0.892322733622 0 0 0 1 0 0 0 1.13687182035)
(0.892489159432 0 0 0 1 0 0 0 1.13725109534)
(0.892351389696 0 0 0 1 0 0 0 1.1369762722)
(0.892454966776 0 0 0 1 0 0 0 1.1371730091)
(0.892375181701 0 0 0 1 0 0 0 1.13703325393)
(0.892433853398 0 0 0 1 0 0 0 1.1371316132)
(0.892390756252 0 0 0 1 0 0 0 1.13706323179)
(0.892421309024 0 0 0 1 0 0 0 1.13711012613)
(0.892399954636 0 0 0 1 0 0 0 1.13707828581)
(0.892414441973 0 0 0 1 0 0 0 1.1370995348)
(0.892404751648 0 0 0 1 0 0 0 1.13708561836)
(0.892411071129 0 0 0 1 0 0 0 1.13709452455)
(0.892407080142 0 0 0 1 0 0 0 1.1370888701)
(0.892409570902 0 0 0 1 0 0 0 1.13709228983)
(0.892408102144 0 0 0 1 0 0 0 1.1370901796)
(0.892409017454 0 0 0 1 0 0 0 1.13709131296)
(0.892408541543 0 0 0 1 0 0 0 1.13709060148)
(0.892408823368 0 0 0 1 0 0 0 1.13709094842)
(0.892408700935 0 0 0 1 0 0 0 1.13709073195)
(0.892408761773 0 0 0 1 0 0 0 1.1370908118)
(0.892408726046 0 0 0 1 0 0 0 1.13709077024)
(0.892408748444 0 0 0 1 0 0 0 1.13709077434)
(0.892408745334 0 0 0 1 0 0 0 1.13709076559)
(0.892408747138 0 0 0 1 0 0 0 1.13709075884)
(0.892408762603 0 0 0 1 0 0 0 1.13709073759)
(0.892408799131 0 0 0 1 0 0 0 1.1370907015)
(0.892408841816 0 0 0 1 0 0 0 1.13709064753)
(0.892408851121 0 0 0 1 0 0 0 1.13709061789)
(0.892408858937 0 0 0 1 0 0 0 1.13709060145)
(0.892408868689 0 0 0 1 0 0 0 1.13709058345)
(0.892408879145 0 0 0 1 0 0 0 1.13709056252)
(0.892408885789 0 0 0 1 0 0 0 1.13709054244)
(0.892408889153 0 0 0 1 0 0 0 1.13709053046)
(0.892408888661 0 0 0 1 0 0 0 1.13709052566)
(0.892408885902 0 0 0 1 0 0 0 1.13709052644)
(0.892408881541 0 0 0 1 0 0 0 1.1370905304)
(0.892408878274 0 0 0 1 0 0 0 1.13709053433)
(0.892408876937 0 0 0 1 0 0 0 1.13709053793)
(0.892408880672 0 0 0 1 0 0 0 1.13709052756)
(0.89240889521 0 0 0 1 0 0 0 1.13709050802)
(0.745353184396 0 0 0 1 0 0 0 1.46444862824)
(0.759450429334 0 0 0 1 0 0 0 1.46256267036)
(0.757213564971 0 0 0 1 0 0 0 1.4524552649)
(0.752138560812 0 0 0 1 0 0 0 1.49115319865)
(0.750990206301 0 0 0 1 0 0 0 1.4910639038)
(0.750249384696 0 0 0 1 0 0 0 1.499855023)
(0.750296061448 0 0 0 1 0 0 0 1.49633720087)
(0.750314803232 0 0 0 1 0 0 0 1.49975541333)
(0.75023588801 0 0 0 1 0 0 0 1.49768239435)
(0.750360855731 0 0 0 1 0 0 0 1.49934516867)
(0.750238979813 0 0 0 1 0 0 0 1.49825639272)
(0.75036243095 0 0 0 1 0 0 0 1.49906712815)
(0.750257662958 0 0 0 1 0 0 0 1.4985241064)
(0.750348227951 0 0 0 1 0 0 0 1.49891247099)
(0.750276728133 0 0 0 1 0 0 0 1.49865212104)
(0.750333322435 0 0 0 1 0 0 0 1.49883304752)
(0.750291077878 0 0 0 1 0 0 0 1.49871308708)
(0.750322447504 0 0 0 1 0 0 0 1.49879419387)
(0.750300389618 0 0 0 1 0 0 0 1.4987409746)
(0.75031579733 0 0 0 1 0 0 0 1.49877602288)
(0.750305458795 0 0 0 1 0 0 0 1.49875366297)
(0.750312364183 0 0 0 1 0 0 0 1.49876770575)
(0.750308031326 0 0 0 1 0 0 0 1.49875886218)
(0.750310801084 0 0 0 1 0 0 0 1.49876407984)
(0.75030916777 0 0 0 1 0 0 0 1.49876086786)
(0.750310209397 0 0 0 1 0 0 0 1.49876244862)
(0.750309683607 0 0 0 1 0 0 0 1.49876131837)
(0.750310020205 0 0 0 1 0 0 0 1.49876173306)
(0.750309897455 0 0 0 1 0 0 0 1.49876133404)
(0.750309987533 0 0 0 1 0 0 0 1.49876141036)
(0.750309944947 0 0 0 1 0 0 0 1.49876135175)
(0.750309977288 0 0 0 1 0 0 0 1.49876132222)
(0.750309956022 0 0 0 1 0 0 0 1.4987613609)
(0.750309951829 0 0 0 1 0 0 0 1.49876137762)
(0.750309979889 0 0 0 1 0 0 0 1.49876128354)
(0.750310032199 0 0 0 1 0 0 0 1.49876110142)
(0.75031007888 0 0 0 1 0 0 0 1.49876088662)
(0.750310095697 0 0 0 1 0 0 0 1.49876065683)
(0.750310129508 0 0 0 1 0 0 0 1.49876048503)
(0.750310176415 0 0 0 1 0 0 0 1.49876033891)
(0.750310211575 0 0 0 1 0 0 0 1.49876023459)
(0.750310231152 0 0 0 1 0 0 0 1.49876015909)
(0.750310239297 0 0 0 1 0 0 0 1.49876011522)
(0.750310237223 0 0 0 1 0 0 0 1.49876009963)
(0.750310229366 0 0 0 1 0 0 0 1.49876010521)
(0.75031021769 0 0 0 1 0 0 0 1.49876012408)
(0.750310208433 0 0 0 1 0 0 0 1.49876014136)
(0.7503102057 0 0 0 1 0 0 0 1.49876015848)
(0.750310210676 0 0 0 1 0 0 0 1.49876013259)
(0.750310241619 0 0 0 1 0 0 0 1.49876005766)
(0.703319717365 0 0 0 1 0 0 0 1.60520162484)
(0.677291700456 0 0 0 1 0 0 0 1.77579935059)
(0.674550570807 0 0 0 1 0 0 0 1.85982907635)
(0.668093765829 0 0 0 1 0 0 0 1.93341421893)
(0.669949583627 0 0 0 1 0 0 0 1.94219361227)
(0.670180730571 0 0 0 1 0 0 0 1.96196325783)
(0.670924948334 0 0 0 1 0 0 0 1.95673343745)
(0.670764435536 0 0 0 1 0 0 0 1.96318835625)
(0.670974429085 0 0 0 1 0 0 0 1.95983483097)
(0.670969386438 0 0 0 1 0 0 0 1.9627410194)
(0.67097569526 0 0 0 1 0 0 0 1.96098304743)
(0.67102899308 0 0 0 1 0 0 0 1.96231920632)
(0.670982392862 0 0 0 1 0 0 0 1.96147274026)
(0.67103736016 0 0 0 1 0 0 0 1.96207478762)
(0.670991736115 0 0 0 1 0 0 0 1.96168750062)
(0.671032372837 0 0 0 1 0 0 0 1.96195213144)
(0.671001089199 0 0 0 1 0 0 0 1.96178269102)
(0.671025757085 0 0 0 1 0 0 0 1.96189492584)
(0.671008012685 0 0 0 1 0 0 0 1.96182350389)
(0.671020899832 0 0 0 1 0 0 0 1.96186945597)
(0.671012146559 0 0 0 1 0 0 0 1.96184079763)
(0.671018174488 0 0 0 1 0 0 0 1.96185831678)
(0.671014370782 0 0 0 1 0 0 0 1.9618473427)
(0.67101687375 0 0 0 1 0 0 0 1.96185362749)
(0.671015358437 0 0 0 1 0 0 0 1.96184992172)
(0.671016281999 0 0 0 1 0 0 0 1.96185187401)
(0.671015769394 0 0 0 1 0 0 0 1.96185052835)
(0.671016095224 0 0 0 1 0 0 0 1.96185088798)
(0.671015983946 0 0 0 1 0 0 0 1.96185030665)
(0.671016075519 0 0 0 1 0 0 0 1.96185027051)
(0.671016049852 0 0 0 1 0 0 0 1.96185008352)
(0.67101609259 0 0 0 1 0 0 0 1.96184983929)
(0.671016056695 0 0 0 1 0 0 0 1.96184983717)
(0.671016050148 0 0 0 1 0 0 0 1.96184978735)
(0.671016125413 0 0 0 1 0 0 0 1.96184943271)
(0.67101621459 0 0 0 1 0 0 0 1.96184890972)
(0.671016262545 0 0 0 1 0 0 0 1.96184842628)
(0.671016305338 0 0 0 1 0 0 0 1.96184806691)
(0.671016326592 0 0 0 1 0 0 0 1.96184769358)
(0.671016363871 0 0 0 1 0 0 0 1.96184732269)
(0.671016384172 0 0 0 1 0 0 0 1.96184704534)
(0.671016394425 0 0 0 1 0 0 0 1.96184688889)
(0.671016397233 0 0 0 1 0 0 0 1.96184681593)
(0.671016388288 0 0 0 1 0 0 0 1.96184678263)
(0.671016372676 0 0 0 1 0 0 0 1.96184679357)
(0.671016354414 0 0 0 1 0 0 0 1.96184684297)
(0.671016338696 0 0 0 1 0 0 0 1.96184688583)
(0.671016334904 0 0 0 1 0 0 0 1.9618469303)
(0.67101633547 0 0 0 1 0 0 0 1.96184690781)
(0.671016374887 0 0 0 1 0 0 0 1.96184675773)
(0.658427935489 0 0 0 1 0 0 0 1.74315705964)
(0.629270540196 0 0 0 1 0 0 0 2.21271508643)
(0.624532179082 0 0 0 1 0 0 0 2.34730214532)
(0.620857741568 0 0 0 1 0 0 0 2.47598213623)
(0.623400047526 0 0 0 1 0 0 0 2.48195991244)
(0.623256301549 0 0 0 1 0 0 0 2.51002754543)
(0.624576461063 0 0 0 1 0 0 0 2.50054707733)
(0.624124801338 0 0 0 1 0 0 0 2.51033647091)
(0.624596577128 0 0 0 1 0 0 0 2.50475452024)
(0.624401208963 0 0 0 1 0 0 0 2.50920076508)
(0.62454951125 0 0 0 1 0 0 0 2.50639122372)
(0.62449441236 0 0 0 1 0 0 0 2.5084157087)
(0.624523380339 0 0 0 1 0 0 0 2.5071045663)
(0.624523288953 0 0 0 1 0 0 0 2.50800192539)
(0.624515681192 0 0 0 1 0 0 0 2.50742268071)
(0.624529285037 0 0 0 1 0 0 0 2.507805409)
(0.62451581898 0 0 0 1 0 0 0 2.50756176102)
(0.624528573852 0 0 0 1 0 0 0 2.50771757934)
(0.624518745207 0 0 0 1 0 0 0 2.50761935054)
(0.624526280058 0 0 0 1 0 0 0 2.50768058852)
(0.624520817434 0 0 0 1 0 0 0 2.50764284196)
(0.624524733693 0 0 0 1 0 0 0 2.50766515293)
(0.624522170915 0 0 0 1 0 0 0 2.5076512179)
(0.62452391748 0 0 0 1 0 0 0 2.50765885805)
(0.624522830787 0 0 0 1 0 0 0 2.50765428603)
(0.624523480678 0 0 0 1 0 0 0 2.50765672021)
(0.624523087935 0 0 0 1 0 0 0 2.50765514418)
(0.624523334733 0 0 0 1 0 0 0 2.50765560061)
(0.624523237055 0 0 0 1 0 0 0 2.5076549839)
(0.624523307175 0 0 0 1 0 0 0 2.50765486235)
(0.62452328838 0 0 0 1 0 0 0 2.50765446766)
(0.624523327496 0 0 0 1 0 0 0 2.50765377477)
(0.624523307161 0 0 0 1 0 0 0 2.50765328198)
(0.624523333051 0 0 0 1 0 0 0 2.50765282439)
(0.624523491272 0 0 0 1 0 0 0 2.50765167709)
(0.624523614631 0 0 0 1 0 0 0 2.50765032492)
(0.624523635148 0 0 0 1 0 0 0 2.50764945138)
(0.624523637753 0 0 0 1 0 0 0 2.50764905267)
(0.624523624311 0 0 0 1 0 0 0 2.50764877339)
(0.624523625546 0 0 0 1 0 0 0 2.50764847524)
(0.624523635172 0 0 0 1 0 0 0 2.50764819958)
(0.624523639036 0 0 0 1 0 0 0 2.50764799911)
(0.624523639108 0 0 0 1 0 0 0 2.50764788896)
(0.624523633655 0 0 0 1 0 0 0 2.50764786919)
(0.624523617739 0 0 0 1 0 0 0 2.50764790279)
(0.624523597415 0 0 0 1 0 0 0 2.50764797612)
(0.624523577138 0 0 0 1 0 0 0 2.50764807188)
(0.624523568747 0 0 0 1 0 0 0 2.50764815091)
(0.624523570842 0 0 0 1 0 0 0 2.50764819042)
(0.624523599453 0 0 0 1 0 0 0 2.50764793243)
(0.626150904227 0 0 0 1 0 0 0 1.95937876076)
(0.5939644343 0 0 0 1 0 0 0 2.70490247027)
(0.59248416407 0 0 0 1 0 0 0 2.89833123983)
(0.591699201547 0 0 0 1 0 0 0 3.08384543874)
(0.594987222102 0 0 0 1 0 0 0 3.08189566725)
(0.594143464457 0 0 0 1 0 0 0 3.11801616716)
(0.595865323332 0 0 0 1 0 0 0 3.10302167053)
(0.595159164467 0 0 0 1 0 0 0 3.11761084003)
(0.595840026375 0 0 0 1 0 0 0 3.10893253596)
(0.595482146615 0 0 0 1 0 0 0 3.11564250925)
(0.595750292378 0 0 0 1 0 0 0 3.1113013406)
(0.595602818162 0 0 0 1 0 0 0 3.11437870301)
(0.595697919677 0 0 0 1 0 0 0 3.11236281228)
(0.595648782811 0 0 0 1 0 0 0 3.11372738972)
(0.59567548417 0 0 0 1 0 0 0 3.11284292062)
(0.595664662333 0 0 0 1 0 0 0 3.11342142796)
(0.595667937683 0 0 0 1 0 0 0 3.11305483578)
(0.595669107469 0 0 0 1 0 0 0 3.11328554564)
(0.595666810973 0 0 0 1 0 0 0 3.11313994327)
(0.595669478587 0 0 0 1 0 0 0 3.11322943235)
(0.595667091177 0 0 0 1 0 0 0 3.1131751595)
(0.595669036773 0 0 0 1 0 0 0 3.11320724454)
(0.595667622749 0 0 0 1 0 0 0 3.11318780873)
(0.595668655107 0 0 0 1 0 0 0 3.11319834083)
(0.595667992206 0 0 0 1 0 0 0 3.11319162534)
(0.595668445501 0 0 0 1 0 0 0 3.11319451443)
(0.595668187951 0 0 0 1 0 0 0 3.11319220765)
(0.595668366489 0 0 0 1 0 0 0 3.11319273819)
(0.595668287487 0 0 0 1 0 0 0 3.11319195838)
(0.595668340927 0 0 0 1 0 0 0 3.113191731)
(0.595668326018 0 0 0 1 0 0 0 3.11319107585)
(0.595668362709 0 0 0 1 0 0 0 3.11318995898)
(0.595668362539 0 0 0 1 0 0 0 3.11318899784)
(0.595668398687 0 0 0 1 0 0 0 3.11318811224)
(0.595668589917 0 0 0 1 0 0 0 3.11318610087)
(0.595668656965 0 0 0 1 0 0 0 3.11318424841)
(0.595668657247 0 0 0 1 0 0 0 3.11318306034)
(0.595668633823 0 0 0 1 0 0 0 3.11318260724)
(0.595668588384 0 0 0 1 0 0 0 3.11318246756)
(0.595668587269 0 0 0 1 0 0 0 3.11318222864)
(0.595668595489 0 0 0 1 0 0 0 3.11318195109)
(0.595668602757 0 0 0 1 0 0 0 3.11318173323)
(0.59566860326 0 0 0 1 0 0 0 3.11318156615)
(0.595668597939 0 0 0 1 0 0 0 3.11318154931)
(0.595668587457 0 0 0 1 0 0 0 3.11318160298)
(0.595668570453 0 0 0 1 0 0 0 3.11318171372)
(0.595668551864 0 0 0 1 0 0 0 3.11318186527)
(0.595668535977 0 0 0 1 0 0 0 3.11318200695)
(0.595668539953 0 0 0 1 0 0 0 3.11318217411)
(0.595668554887 0 0 0 1 0 0 0 3.11318187593)
(0.598264044701 0 0 0 1 0 0 0 2.20725001179)
(0.566871326051 0 0 0 1 0 0 0 3.23352718359)
(0.571964031618 0 0 0 1 0 0 0 3.50131828438)
(0.572789939224 0 0 0 1 0 0 0 3.73915393992)
(0.576651702878 0 0 0 1 0 0 0 3.72084990158)
(0.575263025894 0 0 0 1 0 0 0 3.76686592608)
(0.577174395365 0 0 0 1 0 0 0 3.74333993117)
(0.576217760133 0 0 0 1 0 0 0 3.76369274525)
(0.577040597317 0 0 0 1 0 0 0 3.75059803753)
(0.576540186762 0 0 0 1 0 0 0 3.76027768284)
(0.576902089755 0 0 0 1 0 0 0 3.75376850799)
(0.576675103281 0 0 0 1 0 0 0 3.75830273295)
(0.576825224376 0 0 0 1 0 0 0 3.75526773613)
(0.576733624148 0 0 0 1 0 0 0 3.75730732639)
(0.576789808202 0 0 0 1 0 0 0 3.75596804855)
(0.576757594626 0 0 0 1 0 0 0 3.75684098442)
(0.576775593627 0 0 0 1 0 0 0 3.75628103758)
(0.57676646209 0 0 0 1 0 0 0 3.75663360229)
(0.576770704273 0 0 0 1 0 0 0 3.75641352334)
(0.57676909818 0 0 0 1 0 0 0 3.75654847584)
(0.576769452263 0 0 0 1 0 0 0 3.75646659806)
(0.576769670925 0 0 0 1 0 0 0 3.7565147701)
(0.576769289942 0 0 0 1 0 0 0 3.756485688)
(0.576769706216 0 0 0 1 0 0 0 3.75650095784)
(0.576769432459 0 0 0 1 0 0 0 3.75649055857)
(0.576769706553 0 0 0 1 0 0 0 3.75649419022)
(0.576769551717 0 0 0 1 0 0 0 3.75649048897)
(0.576769674871 0 0 0 1 0 0 0 3.7564908366)
(0.576769644954 0 0 0 1 0 0 0 3.75648929722)
(0.576769707445 0 0 0 1 0 0 0 3.75648859823)
(0.576769695964 0 0 0 1 0 0 0 3.75648752991)
(0.576769711724 0 0 0 1 0 0 0 3.75648594921)
(0.576769681696 0 0 0 1 0 0 0 3.75648519538)
(0.576769687409 0 0 0 1 0 0 0 3.75648462842)
(0.576769869618 0 0 0 1 0 0 0 3.75648247428)
(0.576769918929 0 0 0 1 0 0 0 3.7564804243)
(0.576769903147 0 0 0 1 0 0 0 3.75647922851)
(0.576769846819 0 0 0 1 0 0 0 3.7564784414)
(0.576769808732 0 0 0 1 0 0 0 3.75647810453)
(0.576769815385 0 0 0 1 0 0 0 3.75647768528)
(0.576769827144 0 0 0 1 0 0 0 3.75647729355)
(0.576769834157 0 0 0 1 0 0 0 3.75647702445)
(0.576769840592 0 0 0 1 0 0 0 3.75647688254)
(0.576769836239 0 0 0 1 0 0 0 3.75647682624)
(0.576769825333 0 0 0 1 0 0 0 3.75647690907)
(0.576769806051 0 0 0 1 0 0 0 3.75647707298)
(0.576769788029 0 0 0 1 0 0 0 3.75647726386)
(0.576769767219 0 0 0 1 0 0 0 3.75647749321)
(0.576769763325 0 0 0 1 0 0 0 3.7564777154)
(0.576769773652 0 0 0 1 0 0 0 3.75647753077)
(0.572816805306 0 0 0 1 0 0 0 2.47356153725)
(0.550507811754 0 0 0 1 0 0 0 3.81881124043)
(0.55895137909 0 0 0 1 0 0 0 4.13755481831)
(0.560117600644 0 0 0 1 0 0 0 4.42052261713)
(0.564278393114 0 0 0 1 0 0 0 4.37811654204)
(0.562406824892 0 0 0 1 0 0 0 4.43655741318)
(0.564397348538 0 0 0 1 0 0 0 4.40187240676)
(0.563215806631 0 0 0 1 0 0 0 4.42940752271)
(0.564149682915 0 0 0 1 0 0 0 4.41066728889)
(0.563527307742 0 0 0 1 0 0 0 4.42421939057)
(0.563970771342 0 0 0 1 0 0 0 4.41488430309)
(0.56367412975 0 0 0 1 0 0 0 4.42137262627)
(0.563874321183 0 0 0 1 0 0 0 4.41697043918)
(0.563744077955 0 0 0 1 0 0 0 4.41994049541)
(0.563827933077 0 0 0 1 0 0 0 4.41797156166)
(0.563775628961 0 0 0 1 0 0 0 4.41926150777)
(0.563807594781 0 0 0 1 0 0 0 4.41842886735)
(0.563788839464 0 0 0 1 0 0 0 4.41895577607)
(0.563799543313 0 0 0 1 0 0 0 4.41862485942)
(0.563793635869 0 0 0 1 0 0 0 4.41882857741)
(0.563796716135 0 0 0 1 0 0 0 4.41870485488)
(0.563795226984 0 0 0 1 0 0 0 4.41877735646)
(0.563795908628 0 0 0 1 0 0 0 4.4187331656)
(0.563795700747 0 0 0 1 0 0 0 4.41875608035)
(0.563795795589 0 0 0 1 0 0 0 4.41874037345)
(0.563795862444 0 0 0 1 0 0 0 4.41874594984)
(0.563795817085 0 0 0 1 0 0 0 4.41874052864)
(0.563795880824 0 0 0 1 0 0 0 4.41874116424)
(0.563795896193 0 0 0 1 0 0 0 4.41873871734)
(0.563795955309 0 0 0 1 0 0 0 4.41873754157)
(0.563795917965 0 0 0 1 0 0 0 4.41873627765)
(0.563795912895 0 0 0 1 0 0 0 4.41873493124)
(0.563795852463 0 0 0 1 0 0 0 4.41873502914)
(0.563795842352 0 0 0 1 0 0 0 4.41873494282)
(0.563796029615 0 0 0 1 0 0 0 4.41873245426)
(0.563796084581 0 0 0 1 0 0 0 4.41873027418)
(0.563796047592 0 0 0 1 0 0 0 4.41872817872)
(0.56379589607 0 0 0 1 0 0 0 4.41872840702)
(0.563795920616 0 0 0 1 0 0 0 4.41872766609)
(0.563795962721 0 0 0 1 0 0 0 4.41872711787)
(0.563795995282 0 0 0 1 0 0 0 4.4187266273)
(0.563796011828 0 0 0 1 0 0 0 4.41872618864)
(0.563796017944 0 0 0 1 0 0 0 4.41872583582)
(0.563796009256 0 0 0 1 0 0 0 4.41872561093)
(0.563795994123 0 0 0 1 0 0 0 4.41872548646)
(0.563795972121 0 0 0 1 0 0 0 4.41872561115)
(0.563795945249 0 0 0 1 0 0 0 4.4187258676)
(0.563795922068 0 0 0 1 0 0 0 4.41872617496)
(0.56379590693 0 0 0 1 0 0 0 4.41872649479)
(0.563795918652 0 0 0 1 0 0 0 4.41872673807)
(0.552130955776 0 0 0 1 0 0 0 2.75169157183)
(0.539606194213 0 0 0 1 0 0 0 4.46444981944)
(0.550273122489 0 0 0 1 0 0 0 4.80266557616)
(0.551377928969 0 0 0 1 0 0 0 5.11361970374)
(0.555565711757 0 0 0 1 0 0 0 5.03819075373)
(0.553251028346 0 0 0 1 0 0 0 5.11102917301)
(0.555276513905 0 0 0 1 0 0 0 5.0629642647)
(0.553916414307 0 0 0 1 0 0 0 5.09949521563)
(0.55494439883 0 0 0 1 0 0 0 5.07386301369)
(0.55422236688 0 0 0 1 0 0 0 5.09233542543)
(0.554738300973 0 0 0 1 0 0 0 5.0794377974)
(0.554380913041 0 0 0 1 0 0 0 5.08845479632)
(0.554627148717 0 0 0 1 0 0 0 5.0822754453)
(0.554461315024 0 0 0 1 0 0 0 5.0864782693)
(0.554571534151 0 0 0 1 0 0 0 5.08366637528)
(0.554499897165 0 0 0 1 0 0 0 5.08552381321)
(0.554545659407 0 0 0 1 0 0 0 5.08431424755)
(0.554517178793 0 0 0 1 0 0 0 5.08508728109)
(0.554534495528 0 0 0 1 0 0 0 5.08459951057)
(0.554524287196 0 0 0 1 0 0 0 5.0848998701)
(0.554530201217 0 0 0 1 0 0 0 5.08471487385)
(0.554526874659 0 0 0 1 0 0 0 5.08482348128)
(0.554528685548 0 0 0 1 0 0 0 5.08475699622)
(0.554527787278 0 0 0 1 0 0 0 5.08479199314)
(0.554528274795 0 0 0 1 0 0 0 5.08476888349)
(0.554528104798 0 0 0 1 0 0 0 5.08477812278)
(0.554528190271 0 0 0 1 0 0 0 5.08477049202)
(0.554528171625 0 0 0 1 0 0 0 5.08477236396)
(0.554528202264 0 0 0 1 0 0 0 5.08476920426)
(0.554528258567 0 0 0 1 0 0 0 5.08476813175)
(0.554528224289 0 0 0 1 0 0 0 5.08476715491)
(0.554528194858 0 0 0 1 0 0 0 5.08476624073)
(0.554528135386 0 0 0 1 0 0 0 5.08476659209)
(0.554528127127 0 0 0 1 0 0 0 5.08476667757)
(0.554528307613 0 0 0 1 0 0 0 5.08476371695)
(0.554528355396 0 0 0 1 0 0 0 5.08476093421)
(0.554528297961 0 0 0 1 0 0 0 5.08475827728)
(0.554528164496 0 0 0 1 0 0 0 5.08475872205)
(0.554528206329 0 0 0 1 0 0 0 5.0847579969)
(0.554528265992 0 0 0 1 0 0 0 5.08475714751)
(0.554528297675 0 0 0 1 0 0 0 5.08475632674)
(0.554528308687 0 0 0 1 0 0 0 5.08475554785)
(0.554528306955 0 0 0 1 0 0 0 5.08475500006)
(0.554528291721 0 0 0 1 0 0 0 5.08475469571)
(0.554528273471 0 0 0 1 0 0 0 5.08475467651)
(0.55452826334 0 0 0 1 0 0 0 5.08475482833)
(0.554528230202 0 0 0 1 0 0 0 5.08475524832)
(0.554528207496 0 0 0 1 0 0 0 5.08475571516)
(0.554528184277 0 0 0 1 0 0 0 5.08475633885)
(0.554528195577 0 0 0 1 0 0 0 5.08475703808)
(0.534436582385 0 0 0 1 0 0 0 3.04994132023)
(0.533059648174 0 0 0 1 0 0 0 5.1512890144)
(0.544611637677 0 0 0 1 0 0 0 5.45822539963)
(0.544939465926 0 0 0 1 0 0 0 5.79953353348)
(0.549080189449 0 0 0 1 0 0 0 5.6868102772)
(0.546461007895 0 0 0 1 0 0 0 5.77800784636)
(0.548516058338 0 0 0 1 0 0 0 5.71467613395)
(0.5470399881 0 0 0 1 0 0 0 5.76227025276)
(0.548143357797 0 0 0 1 0 0 0 5.72838373288)
(0.547346568167 0 0 0 1 0 0 0 5.75292995016)
(0.547922444349 0 0 0 1 0 0 0 5.7356271437)
(0.547514664326 0 0 0 1 0 0 0 5.74782424832)
(0.547800963557 0 0 0 1 0 0 0 5.73938730495)
(0.547603556439 0 0 0 1 0 0 0 5.74517854036)
(0.547737902807 0 0 0 1 0 0 0 5.74126695814)
(0.547648162221 0 0 0 1 0 0 0 5.74387593937)
(0.547707163906 0 0 0 1 0 0 0 5.74216127076)
(0.547669218233 0 0 0 1 0 0 0 5.74326778674)
(0.547693184887 0 0 0 1 0 0 0 5.74256201175)
(0.547678403194 0 0 0 1 0 0 0 5.74300112961)
(0.547687253073 0 0 0 1 0 0 0 5.7427312882)
(0.547682016862 0 0 0 1 0 0 0 5.74289258619)
(0.547685078474 0 0 0 1 0 0 0 5.74279368018)
(0.547683436471 0 0 0 1 0 0 0 5.74284656006)
(0.547684371027 0 0 0 1 0 0 0 5.74281241413)
(0.547683933631 0 0 0 1 0 0 0 5.74282721566)
(0.547684171161 0 0 0 1 0 0 0 5.74281606415)
(0.547684062623 0 0 0 1 0 0 0 5.74281970578)
(0.547684115997 0 0 0 1 0 0 0 5.74281584772)
(0.547684169787 0 0 0 1 0 0 0 5.74281500692)
(0.547684154375 0 0 0 1 0 0 0 5.74281406657)
(0.547684090643 0 0 0 1 0 0 0 5.74281306782)
(0.547684045932 0 0 0 1 0 0 0 5.74281308065)
(0.547684051219 0 0 0 1 0 0 0 5.74281316136)
(0.547684156435 0 0 0 1 0 0 0 5.74280998901)
(0.547684215424 0 0 0 1 0 0 0 5.74280643741)
(0.547684172332 0 0 0 1 0 0 0 5.74280425709)
(0.547684122101 0 0 0 1 0 0 0 5.74280327889)
(0.547684158817 0 0 0 1 0 0 0 5.74280178233)
(0.547684186781 0 0 0 1 0 0 0 5.74280052705)
(0.547684194739 0 0 0 1 0 0 0 5.7427995404)
(0.547684188513 0 0 0 1 0 0 0 5.74279876442)
(0.547684175875 0 0 0 1 0 0 0 5.74279836995)
(0.5476841572 0 0 0 1 0 0 0 5.74279823045)
(0.547684141331 0 0 0 1 0 0 0 5.7427983536)
(0.547684135203 0 0 0 1 0 0 0 5.74279832058)
(0.547684108758 0 0 0 1 0 0 0 5.74279877546)
(0.547684077603 0 0 0 1 0 0 0 5.74279928613)
(0.547684050571 0 0 0 1 0 0 0 5.7427999819)
(0.547684050644 0 0 0 1 0 0 0 5.74280077605)
(0.519113864174 0 0 0 1 0 0 0 3.36012519429)
(0.529396994876 0 0 0 1 0 0 0 5.86010253719)
(0.540565309102 0 0 0 1 0 0 0 6.10132181713)
(0.54009251658 0 0 0 1 0 0 0 6.47088511537)
(0.544128314098 0 0 0 1 0 0 0 6.31399690498)
(0.54130150558 0 0 0 1 0 0 0 6.42846950524)
(0.543353158777 0 0 0 1 0 0 0 6.34809766408)
(0.541822544022 0 0 0 1 0 0 0 6.40899194474)
(0.542971491827 0 0 0 1 0 0 0 6.36536797969)
(0.542128153411 0 0 0 1 0 0 0 6.39724094167)
(0.542745879139 0 0 0 1 0 0 0 6.37459057073)
(0.54230121249 0 0 0 1 0 0 0 6.39069775214)
(0.542618565127 0 0 0 1 0 0 0 6.37945348685)
(0.542395648709 0 0 0 1 0 0 0 6.38724450762)
(0.542550275002 0 0 0 1 0 0 0 6.38193109543)
(0.542444783603 0 0 0 1 0 0 0 6.38551079743)
(0.542515680951 0 0 0 1 0 0 0 6.38313470401)
(0.542468962 0 0 0 1 0 0 0 6.38468426997)
(0.542499196981 0 0 0 1 0 0 0 6.38368732085)
(0.542480000961 0 0 0 1 0 0 0 6.38431527048)
(0.542491892637 0 0 0 1 0 0 0 6.38392524185)
(0.542484684229 0 0 0 1 0 0 0 6.38415934107)
(0.542489009794 0 0 0 1 0 0 0 6.38401502953)
(0.542486543084 0 0 0 1 0 0 0 6.38409449134)
(0.542487963268 0 0 0 1 0 0 0 6.38404472657)
(0.542487226554 0 0 0 1 0 0 0 6.38406810869)
(0.542487642586 0 0 0 1 0 0 0 6.38405170417)
(0.542487440166 0 0 0 1 0 0 0 6.38405774113)
(0.542487520858 0 0 0 1 0 0 0 6.38405261346)
(0.54248756322 0 0 0 1 0 0 0 6.38405165836)
(0.542487585889 0 0 0 1 0 0 0 6.3840496924)
(0.542487496665 0 0 0 1 0 0 0 6.38404938445)
(0.542487461285 0 0 0 1 0 0 0 6.38404898711)
(0.542487462736 0 0 0 1 0 0 0 6.38404957171)
(0.542487459267 0 0 0 1 0 0 0 6.38404719438)
(0.542487548559 0 0 0 1 0 0 0 6.38404398973)
(0.54248756966 0 0 0 1 0 0 0 6.38404029745)
(0.542487579039 0 0 0 1 0 0 0 6.38403836643)
(0.542487584558 0 0 0 1 0 0 0 6.38403656827)
(0.542487592548 0 0 0 1 0 0 0 6.38403496371)
(0.542487579683 0 0 0 1 0 0 0 6.38403395854)
(0.542487567643 0 0 0 1 0 0 0 6.3840332066)
(0.542487548857 0 0 0 1 0 0 0 6.38403304008)
(0.542487535106 0 0 0 1 0 0 0 6.38403292995)
(0.542487525542 0 0 0 1 0 0 0 6.38403291539)
(0.542487525258 0 0 0 1 0 0 0 6.38403269709)
(0.542487507727 0 0 0 1 0 0 0 6.38403241107)
(0.542487467812 0 0 0 1 0 0 0 6.38403286149)
(0.542487446505 0 0 0 1 0 0 0 6.3840333091)
(0.542487430406 0 0 0 1 0 0 0 6.38403347977)
(0.506076307688 0 0 0 1 0 0 0 3.6796436328)
(0.527403807286 0 0 0 1 0 0 0 6.60451374708)
(0.537840055246 0 0 0 1 0 0 0 6.72042633211)
(0.536163246159 0 0 0 1 0 0 0 7.1133647553)
(0.540089384185 0 0 0 1 0 0 0 6.91506096788)
(0.537292933154 0 0 0 1 0 0 0 7.05727282669)
(0.539307307802 0 0 0 1 0 0 0 6.95727572445)
(0.537787004306 0 0 0 1 0 0 0 7.03352758187)
(0.538939019444 0 0 0 1 0 0 0 6.97843361573)
(0.538082175012 0 0 0 1 0 0 0 7.01895967916)
(0.538717032029 0 0 0 1 0 0 0 6.98989984001)
(0.538253356172 0 0 0 1 0 0 0 7.01073321531)
(0.538588904292 0 0 0 1 0 0 0 6.99605210838)
(0.538349402165 0 0 0 1 0 0 0 7.00631858291)
(0.538518241379 0 0 0 1 0 0 0 6.99924741785)
(0.538400972881 0 0 0 1 0 0 0 7.00405949173)
(0.538481246607 0 0 0 1 0 0 0 7.00083207156)
(0.538427271982 0 0 0 1 0 0 0 7.00295975328)
(0.538462929722 0 0 0 1 0 0 0 7.0015764377)
(0.538439804909 0 0 0 1 0 0 0 7.00245641201)
(0.538454505754 0 0 0 1 0 0 0 7.00190265999)
(0.538445312503 0 0 0 1 0 0 0 7.00224102065)
(0.538450925547 0 0 0 1 0 0 0 7.00203375048)
(0.538447641875 0 0 0 1 0 0 0 7.00215097905)
(0.538449581797 0 0 0 1 0 0 0 7.00207844)
(0.538448520769 0 0 0 1 0 0 0 7.00211432109)
(0.538449137643 0 0 0 1 0 0 0 7.00208998737)
(0.538448826011 0 0 0 1 0 0 0 7.00209958657)
(0.538448937299 0 0 0 1 0 0 0 7.00209255021)
(0.53844896365 0 0 0 1 0 0 0 7.0020915743)
(0.538449102911 0 0 0 1 0 0 0 7.0020876859)
(0.538448937274 0 0 0 1 0 0 0 7.00208736284)
(0.538448912989 0 0 0 1 0 0 0 7.00208667834)
(0.538448863291 0 0 0 1 0 0 0 7.00208803515)
(0.538448730041 0 0 0 1 0 0 0 7.00209071576)
(0.538448909974 0 0 0 1 0 0 0 7.00208577168)
(0.538449012977 0 0 0 1 0 0 0 7.00207959154)
(0.538449052158 0 0 0 1 0 0 0 7.0020754445)
(0.538449011742 0 0 0 1 0 0 0 7.00207311583)
(0.538448992631 0 0 0 1 0 0 0 7.00207178083)
(0.538448965145 0 0 0 1 0 0 0 7.0020713881)
(0.538448950318 0 0 0 1 0 0 0 7.0020708788)
(0.538448928406 0 0 0 1 0 0 0 7.00207080236)
(0.538448921507 0 0 0 1 0 0 0 7.00207026614)
(0.538448907241 0 0 0 1 0 0 0 7.00206977635)
(0.538448900942 0 0 0 1 0 0 0 7.00206897111)
(0.5384488836 0 0 0 1 0 0 0 7.00206833999)
(0.538448864123 0 0 0 1 0 0 0 7.00206780728)
(0.538448853877 0 0 0 1 0 0 0 7.00206798828)
(0.538448827363 0 0 0 1 0 0 0 7.00206833842)
(0.495099146481 0 0 0 1 0 0 0 4.00518456031)
(0.526339843705 0 0 0 1 0 0 0 7.3870143177)
(0.536098818564 0 0 0 1 0 0 0 7.31179558388)
(0.532785351568 0 0 0 1 0 0 0 7.71255389669)
(0.536706894458 0 0 0 1 0 0 0 7.48307159177)
(0.534145088623 0 0 0 1 0 0 0 7.65937499219)
(0.536056969624 0 0 0 1 0 0 0 7.53747691782)
(0.534618439445 0 0 0 1 0 0 0 7.63144593376)
(0.535720607501 0 0 0 1 0 0 0 7.56305908592)
(0.534891998894 0 0 0 1 0 0 0 7.61372134221)
(0.535512189952 0 0 0 1 0 0 0 7.57707708331)
(0.535053542352 0 0 0 1 0 0 0 7.60356201598)
(0.535389512846 0 0 0 1 0 0 0 7.58472439359)
(0.535146354018 0 0 0 1 0 0 0 7.59801869907)
(0.535320221301 0 0 0 1 0 0 0 7.58877008791)
(0.535197576105 0 0 0 1 0 0 0 7.59512780731)
(0.535282877369 0 0 0 1 0 0 0 7.59081981133)
(0.535224506004 0 0 0 1 0 0 0 7.59369208534)
(0.535263776542 0 0 0 1 0 0 0 7.59180410186)
(0.535237817359 0 0 0 1 0 0 0 7.59301889782)
(0.535254671466 0 0 0 1 0 0 0 7.59224563261)
(0.535243929035 0 0 0 1 0 0 0 7.59272375214)
(0.535250602043 0 0 0 1 0 0 0 7.59242942751)
(0.53524657383 0 0 0 1 0 0 0 7.59260031225)
(0.535248991621 0 0 0 1 0 0 0 7.59249562781)
(0.535247613126 0 0 0 1 0 0 0 7.59255022188)
(0.535248433338 0 0 0 1 0 0 0 7.59251439827)
(0.53524800786 0 0 0 1 0 0 0 7.59252924543)
(0.5352481538 0 0 0 1 0 0 0 7.59251884086)
(0.535248154896 0 0 0 1 0 0 0 7.592518085)
(0.535248387668 0 0 0 1 0 0 0 7.59251143566)
(0.53524820675 0 0 0 1 0 0 0 7.59251522514)
(0.535248162556 0 0 0 1 0 0 0 7.59252045642)
(0.535248033831 0 0 0 1 0 0 0 7.5925275336)
(0.535247751318 0 0 0 1 0 0 0 7.59254215502)
(0.535248054615 0 0 0 1 0 0 0 7.59253551552)
(0.535248203139 0 0 0 1 0 0 0 7.5925273022)
(0.535248156077 0 0 0 1 0 0 0 7.59252699286)
(0.535248045793 0 0 0 1 0 0 0 7.59252949815)
(0.535248002142 0 0 0 1 0 0 0 7.59253179996)
(0.535247970847 0 0 0 1 0 0 0 7.59253370046)
(0.535247965458 0 0 0 1 0 0 0 7.59253453236)
(0.535247939276 0 0 0 1 0 0 0 7.59253589857)
(0.535247930839 0 0 0 1 0 0 0 7.59253619515)
(0.535247898021 0 0 0 1 0 0 0 7.59253625667)
(0.535247886172 0 0 0 1 0 0 0 7.59253527878)
(0.535247886504 0 0 0 1 0 0 0 7.59253325366)
(0.535247889155 0 0 0 1 0 0 0 7.59252947344)
(0.535247951247 0 0 0 1 0 0 0 7.59252740768)
(0.53524797955 0 0 0 1 0 0 0 7.59252841696)
(0.485732218298 0 0 0 1 0 0 0 4.34372363443)
(0.525256440821 0 0 0 1 0 0 0 8.18604845705)
(0.534471491683 0 0 0 1 0 0 0 7.85369234503)
(0.53071655649 0 0 0 1 0 0 0 8.3052792156)
(0.534008277726 0 0 0 1 0 0 0 8.02323207575)
(0.531707479771 0 0 0 1 0 0 0 8.23403292044)
(0.533394813766 0 0 0 1 0 0 0 8.08611366378)
(0.532108054718 0 0 0 1 0 0 0 8.2001294183)
(0.533096429677 0 0 0 1 0 0 0 8.1162959979)
(0.532345206171 0 0 0 1 0 0 0 8.17878977943)
(0.532911788241 0 0 0 1 0 0 0 8.13318296928)
(0.53248827043 0 0 0 1 0 0 0 8.16641450332)
(0.532801701519 0 0 0 1 0 0 0 8.14255607871)
(0.532572126978 0 0 0 1 0 0 0 8.15955043117)
(0.5327383251 0 0 0 1 0 0 0 8.14760728724)
(0.532619500076 0 0 0 1 0 0 0 8.15590203217)
(0.532703299193 0 0 0 1 0 0 0 8.15022188863)
(0.532645046343 0 0 0 1 0 0 0 8.15405354963)
(0.532684879558 0 0 0 1 0 0 0 8.15150548343)
(0.532658076768 0 0 0 1 0 0 0 8.15316492927)
(0.532675830364 0 0 0 1 0 0 0 8.15209450711)
(0.532664330426 0 0 0 1 0 0 0 8.15276809056)
(0.532671570232 0 0 0 1 0 0 0 8.15235783785)
(0.532667045658 0 0 0 1 0 0 0 8.1526115541)
(0.532669762624 0 0 0 1 0 0 0 8.15246899297)
(0.532668061267 0 0 0 1 0 0 0 8.15256023438)
(0.532669028953 0 0 0 1 0 0 0 8.15251135761)
(0.532668509654 0 0 0 1 0 0 0 8.15253617986)
(0.532668727554 0 0 0 1 0 0 0 8.15252357332)
(0.532668614428 0 0 0 1 0 0 0 8.15253257921)
(0.53266884369 0 0 0 1 0 0 0 8.15253529585)
(0.532668692543 0 0 0 1 0 0 0 8.15254694936)
(0.532668522971 0 0 0 1 0 0 0 8.15255021649)
(0.532668627986 0 0 0 1 0 0 0 8.15254736818)
(0.532668572111 0 0 0 1 0 0 0 8.15255982407)
(0.532668380875 0 0 0 1 0 0 0 8.15259819816)
(0.532668373234 0 0 0 1 0 0 0 8.15260370771)
(0.532668224986 0 0 0 1 0 0 0 8.15261235825)
(0.532668175811 0 0 0 1 0 0 0 8.15262083261)
(0.532668165194 0 0 0 1 0 0 0 8.15262696553)
(0.532668134935 0 0 0 1 0 0 0 8.15263140091)
(0.532668122994 0 0 0 1 0 0 0 8.15263311997)
(0.532668088448 0 0 0 1 0 0 0 8.15263575064)
(0.53266807172 0 0 0 1 0 0 0 8.15263632704)
(0.532668064275 0 0 0 1 0 0 0 8.15263632742)
(0.532668076759 0 0 0 1 0 0 0 8.15263633306)
(0.532668087608 0 0 0 1 0 0 0 8.15263599462)
(0.532668124006 0 0 0 1 0 0 0 8.15263363419)
(0.532668223712 0 0 0 1 0 0 0 8.1526283402)
(0.53266832791 0 0 0 1 0 0 0 8.1526225206)
(0.476144617302 0 0 0 1 0 0 0 4.72119477189)
(0.524753307408 0 0 0 1 0 0 0 9.02016892911)
(0.532770482856 0 0 0 1 0 0 0 8.3437962794)
(0.529106053197 0 0 0 1 0 0 0 8.85926780002)