/*--------------------------------*- C++ -*----------------------------------*\
  =========                 |
  \\      /  F ield         | OpenFOAM: The Open Source CFD Toolbox
   \\    /   O peration     | Website:  https://openfoam.org
    \\  /    A nd           | Version:  9
     \\/     M anipulation  |
\*---------------------------------------------------------------------------*/
FoamFile
{
    format      ascii;
    class       volTensorField;
    location    "120";
    object      grad(U);
}
// * * * * * * * * * * * * * * * * * * * * * * * * * * * * * * * * * * * * * //

dimensions      [0 0 -1 0 0 0 0];

internalField   nonuniform List<tensor> 
12230
(
(0.0929611947857 -0.00177849265896 0 -0.0551733253894 -0.0942722710683 0 0 0 0)
(0.00523914069041 0.00180706622932 0 -0.0618544011835 -0.00371574130229 0 0 0 0)
(-0.00126805112814 8.02269318225e-05 0 -0.0602686333321 0.000141206701691 0 0 0 0)
(0.00100168531223 -4.07687566877e-06 0 -0.0613166777787 7.13258533545e-05 0 0 0 0)
(-0.000836015812264 1.6861202138e-07 0 -0.0605086154494 -1.91265346745e-05 0 0 0 0)
(0.000616485336951 7.12452964994e-07 0 -0.0610328905875 9.95306105504e-05 0 0 0 0)
(-0.000616492783417 -2.5521925893e-06 0 -0.0604745391094 2.85966527281e-05 0 0 0 0)
(0.000491522671302 -1.00056320877e-06 0 -0.0608951262525 -1.36853742881e-05 0 0 0 0)
(-0.000401239512203 8.81392468593e-07 0 -0.0606117930208 1.41798307045e-05 0 0 0 0)
(0.000315955678013 -9.13150091056e-07 0 -0.0607959806561 -5.83345867169e-06 0 0 0 0)
(-0.000249918791788 7.18153642864e-07 0 -0.0606798568327 3.35582078601e-06 0 0 0 0)
(0.000193852929469 -6.55861106496e-07 0 -0.0607503822279 5.09695422957e-08 0 0 0 0)
(-0.000149309105018 5.40990607401e-07 0 -0.0607099117852 -1.63187704323e-06 0 0 0 0)
(0.000113189247502 -4.44407109092e-07 0 -0.0607316822621 3.00972487554e-06 0 0 0 0)
(-8.48237224991e-05 3.52451378266e-07 0 -0.0607212145447 -3.45775727792e-06 0 0 0 0)
(6.24538194558e-05 -2.750176358e-07 0 -0.060725318174 3.7346469775e-06 0 0 0 0)
(-4.54516683367e-05 2.02820918742e-07 0 -0.0607244726692 -3.44710221859e-06 0 0 0 0)
(3.24414722979e-05 -1.4906311223e-07 0 -0.0607238419852 3.11780311603e-06 0 0 0 0)
(-2.28709128879e-05 1.0576521066e-07 0 -0.06072497663 -2.56398292069e-06 0 0 0 0)
(1.57052113572e-05 -7.3235465571e-08 0 -0.0607238388248 2.15307549755e-06 0 0 0 0)
(-1.06573483173e-05 4.99867566271e-08 0 -0.0607247645951 -1.64667213988e-06 0 0 0 0)
(6.95577222917e-06 -2.20949843988e-08 0 -0.0607240840346 1.34487689322e-06 0 0 0 0)
(-4.67673204364e-06 1.29380469574e-08 0 -0.0607245264164 -7.95873412518e-07 0 0 0 0)
(2.82522910406e-06 -9.90235372528e-09 0 -0.0607242240321 6.96112103104e-07 0 0 0 0)
(-1.84773190621e-06 3.23546829894e-09 0 -0.0607244131568 -3.64792520428e-07 0 0 0 0)
(9.98029002626e-07 1.4040612117e-09 0 -0.0607242699387 3.47228027824e-07 0 0 0 0)
(-7.11199513634e-07 -2.69081474141e-09 0 -0.0607243496876 -8.42351629005e-08 0 0 0 0)
(2.93320643181e-07 2.53046809095e-09 0 -0.060724329942 1.59636375735e-07 0 0 0 0)
(-2.89999200628e-07 8.89071459774e-10 0 -0.0607243619844 4.23846925853e-08 0 0 0 0)
(1.35261820069e-08 -1.0371373431e-09 0 -0.0607243649855 1.19607543399e-07 0 0 0 0)
(-1.29695168673e-07 3.14635744942e-10 0 -0.0607243997706 5.92955620802e-08 0 0 0 0)
(-6.70170491473e-08 -3.07760170213e-09 0 -0.0607244142419 1.02308315908e-07 0 0 0 0)
(-5.53102889597e-08 -8.83638672257e-09 0 -0.0607244390552 3.61937588715e-08 0 0 0 0)
(-1.84274097498e-08 8.73287413836e-09 0 -0.0607244530226 1.99795636137e-08 0 0 0 0)
(-1.32976486134e-07 3.19302905812e-08 0 -0.0607244997559 1.27705247036e-07 0 0 0 0)
(-2.8319613972e-07 2.63127844575e-08 0 -0.060724540203 2.87817542204e-07 0 0 0 0)
(-3.26329333204e-07 -2.86803473652e-09 0 -0.0607245298221 3.18832134017e-07 0 0 0 0)
(-2.41974816531e-07 -2.42080342545e-08 0 -0.0607245199838 2.51549664775e-07 0 0 0 0)
(-1.43546396661e-07 -2.511008446e-08 0 -0.0607245162809 1.40275064268e-07 0 0 0 0)
(-8.03781805484e-08 -1.6291118337e-08 0 -0.0607245235187 7.9562336356e-08 0 0 0 0)
(-4.77711294555e-08 -1.13716027102e-08 0 -0.0607245403235 4.80377111347e-08 0 0 0 0)
(-2.48226345847e-08 -9.29826952109e-09 0 -0.0607245599443 2.04810354278e-08 0 0 0 0)
(4.08512000341e-11 -8.79533364912e-09 0 -0.0607245799913 -2.27285610384e-09 0 0 0 0)
(2.24769233002e-08 -8.16562632258e-09 0 -0.0607246027724 -2.54827513383e-08 0 0 0 0)
(4.14716964448e-08 -6.70047152469e-09 0 -0.0607246272456 -4.44751580121e-08 0 0 0 0)
(5.54761117881e-08 -4.29396156723e-09 0 -0.0607246537036 -5.89119977789e-08 0 0 0 0)
(6.19710473645e-08 1.9639619812e-10 0 -0.0607246809367 -6.5384339489e-08 0 0 0 0)
(5.61066979589e-08 8.01941128949e-09 0 -0.0607247073733 -6.01568257552e-08 0 0 0 0)
(3.01671046173e-08 2.14524794697e-08 0 -0.0607247311619 -3.49907209785e-08 0 0 0 0)
(-2.64441057364e-08 3.81651602425e-08 0 -0.0607247497923 2.25165679329e-08 0 0 0 0)
(0.0849417165414 -0.00492546386677 0 -0.159073401795 -0.0857478420384 0 0 0 0)
(0.00488727547354 0.00501346225345 0 -0.179698360608 -0.00282339272563 0 0 0 0)
(-0.00123249101786 0.000208032010325 0 -0.174695053145 -0.00016176318938 0 0 0 0)
(0.000986416789425 -9.26214047602e-06 0 -0.178370993096 0.000283494290785 0 0 0 0)
(-0.000814964050552 2.72717343673e-06 0 -0.175771677328 -0.000235184361036 0 0 0 0)
(0.000622179636439 3.17623661946e-06 0 -0.177446983586 0.000255222685158 0 0 0 0)
(-0.000605955366944 -8.34253952269e-06 0 -0.175719431504 -0.000121902331799 0 0 0 0)
(0.000479702261205 -3.45641976438e-07 0 -0.176971253709 0.00011520212066 0 0 0 0)
(-0.000392107470436 -1.0617503052e-07 0 -0.176109719603 -8.94859889466e-05 0 0 0 0)
(0.000309274416466 -2.9157296932e-07 0 -0.176669973415 7.69824334373e-05 0 0 0 0)
(-0.000245146703268 2.40907619991e-09 0 -0.17631103135 -6.20611311943e-05 0 0 0 0)
(0.000190491558592 -2.04409880705e-08 0 -0.176530910579 5.12833795076e-05 0 0 0 0)
(-0.00014707676776 -7.92088633513e-08 0 -0.176401743626 -4.11888021636e-05 0 0 0 0)
(0.000111744485337 1.07791607606e-07 0 -0.176472968434 3.30490694037e-05 0 0 0 0)
(-8.39506640283e-05 -1.58984574048e-07 0 -0.176437150392 -2.6091687479e-05 0 0 0 0)
(6.19714071351e-05 1.90515929776e-07 0 -0.176452495429 2.0461248036e-05 0 0 0 0)
(-4.52119396183e-05 -2.23467898284e-07 0 -0.176447991115 -1.56997892754e-05 0 0 0 0)
(3.23464800897e-05 2.2983545248e-07 0 -0.176447262128 1.18980252058e-05 0 0 0 0)
(-2.28591349538e-05 -2.19849148911e-07 0 -0.176450032711 -8.76346816296e-06 0 0 0 0)
(1.57351530472e-05 1.98003238783e-07 0 -0.176446873757 6.43900688958e-06 0 0 0 0)
(-1.06981928326e-05 -1.71669359928e-07 0 -0.176449578323 -4.57376357443e-06 0 0 0 0)
(7.00019551716e-06 1.72192325386e-07 0 -0.176447485628 3.27006819354e-06 0 0 0 0)
(-4.70378059885e-06 -1.35953293762e-07 0 -0.176448878075 -2.07949262165e-06 0 0 0 0)
(2.84905003321e-06 9.52229409861e-08 0 -0.176447857359 1.49012419575e-06 0 0 0 0)
(-1.85701659045e-06 -7.8633004395e-08 0 -0.176448511947 -8.80043591317e-07 0 0 0 0)
(1.01328665327e-06 6.50345601988e-08 0 -0.17644806508 6.27724580054e-07 0 0 0 0)
(-7.27275436327e-07 -4.50495930992e-08 0 -0.176448302674 -2.70576293032e-07 0 0 0 0)
(2.89262402138e-07 3.23090761274e-08 0 -0.176448165685 2.39933781258e-07 0 0 0 0)
(-3.00710975141e-07 -1.16725500585e-08 0 -0.176448214846 -2.87984477232e-08 0 0 0 0)
(7.66767639016e-10 5.29052271923e-09 0 -0.176448158206 1.35057183377e-07 0 0 0 0)
(-1.46671514967e-07 -5.33764687163e-09 0 -0.176448214607 3.29388494126e-08 0 0 0 0)
(-8.15766660517e-08 -6.80323446557e-09 0 -0.176448205837 1.0017105068e-07 0 0 0 0)
(-7.02628634925e-08 -2.34566243369e-08 0 -0.176448246152 3.21159804847e-08 0 0 0 0)
(-4.36903548751e-08 3.10059369128e-08 0 -0.176448275683 3.07033923641e-08 0 0 0 0)
(-1.7065675853e-07 8.76847376213e-08 0 -0.17644834176 1.39314321786e-07 0 0 0 0)
(-2.96312247394e-07 6.19516508734e-08 0 -0.17644843004 2.67886073825e-07 0 0 0 0)
(-3.16576451065e-07 -1.61963752444e-08 0 -0.176448364296 2.6267506678e-07 0 0 0 0)
(-2.35158656385e-07 -6.96802737285e-08 0 -0.176448276334 1.93369309578e-07 0 0 0 0)
(-1.45608059881e-07 -6.90571371022e-08 0 -0.176448200112 8.96382274735e-08 0 0 0 0)
(-9.41832296676e-08 -3.71911369919e-08 0 -0.176448151668 4.47669941668e-08 0 0 0 0)
(-6.96628071048e-08 -2.50692769098e-08 0 -0.17644816159 3.14127991839e-08 0 0 0 0)
(-4.99470472231e-08 -2.33518194077e-08 0 -0.17644817842 9.6261921419e-09 0 0 0 0)
(-2.8639290633e-08 -2.27689052726e-08 0 -0.176448205232 -5.89807216345e-09 0 0 0 0)
(-1.090668982e-08 -2.23090763022e-08 0 -0.176448242602 -2.57347759035e-08 0 0 0 0)
(3.4804537068e-09 -1.87487289981e-08 0 -0.176448284878 -4.20244746742e-08 0 0 0 0)
(1.32206881537e-08 -1.23901441771e-08 0 -0.176448330932 -5.54596672332e-08 0 0 0 0)
(1.7412318039e-08 -9.48178244744e-10 0 -0.17644837881 -6.05474480054e-08 0 0 0 0)
(1.21274325058e-08 1.9863007395e-08 0 -0.176448424438 -5.75501821626e-08 0 0 0 0)
(-8.97495091619e-09 5.79213881386e-08 0 -0.176448464775 -3.61577374179e-08 0 0 0 0)
(-6.03987435594e-08 1.07507686404e-07 0 -0.176448491715 1.50226674492e-08 0 0 0 0)
(0.0711768137049 -0.00742452092585 0 -0.250597035811 -0.0720201507037 0 0 0 0)
(0.00422939401986 0.00756644852383 0 -0.285677932462 -0.00238462713813 0 0 0 0)
(-0.00118927506812 0.000302730339689 0 -0.277624942464 -0.000278126178142 0 0 0 0)
(0.000934145778415 -1.18271859682e-05 0 -0.284475581014 0.000326145162129 0 0 0 0)
(-0.000771816272413 3.4080036733e-07 0 -0.28000717703 -0.000240167486163 0 0 0 0)
(0.000628773275517 8.24011611915e-06 0 -0.283115617332 0.000219903542409 0 0 0 0)
(-0.000581608034157 -1.36848327784e-05 0 -0.280034731033 -0.000109465010209 0 0 0 0)
(0.000460239816952 9.12403928355e-07 0 -0.282174631894 0.000107146297481 0 0 0 0)
(-0.000375247475898 -1.90464614301e-06 0 -0.280671298622 -8.24751448298e-05 0 0 0 0)
(0.000297512535788 1.07819043655e-06 0 -0.281662327019 7.03642839575e-05 0 0 0 0)
(-0.000236315125289 -1.35950494848e-06 0 -0.281010774048 -5.58485976788e-05 0 0 0 0)
(0.000184390029931 1.1251914135e-06 0 -0.281420149456 4.5786644853e-05 0 0 0 0)
(-0.000142858121469 -1.14717002167e-06 0 -0.281169676661 -3.65115959503e-05 0 0 0 0)
(0.000108974499818 1.04803343626e-06 0 -0.281315122577 2.90345921388e-05 0 0 0 0)
(-8.22130149388e-05 -9.83543817327e-07 0 -0.281235497663 -2.27403138222e-05 0 0 0 0)
(6.09673727856e-05 9.08523345286e-07 0 -0.281275217158 1.76992351469e-05 0 0 0 0)
(-4.46713911177e-05 -8.46474511029e-07 0 -0.281258026439 -1.34877468428e-05 0 0 0 0)
(3.20994194421e-05 7.63955246874e-07 0 -0.281263197371 1.01850058897e-05 0 0 0 0)
(-2.27793989989e-05 -6.63342255404e-07 0 -0.281263832288 -7.50597693258e-06 0 0 0 0)
(1.57593547185e-05 5.56833612462e-07 0 -0.281260856704 5.48443695853e-06 0 0 0 0)
(-1.07495823628e-05 -4.58465516417e-07 0 -0.28126407697 -3.92020742728e-06 0 0 0 0)
(7.0772870422e-06 4.10041984868e-07 0 -0.28126123825 2.79623226338e-06 0 0 0 0)
(-4.74191545255e-06 -3.15626445813e-07 0 -0.281263247875 -1.80605835574e-06 0 0 0 0)
(2.89671358843e-06 2.24192739784e-07 0 -0.281261626597 1.29022756667e-06 0 0 0 0)
(-1.88914660914e-06 -1.77088755394e-07 0 -0.281262678325 -7.72082552772e-07 0 0 0 0)
(1.04536373253e-06 1.38372457223e-07 0 -0.281262101433 5.58103593165e-07 0 0 0 0)
(-7.3569580407e-07 -9.55066036844e-08 0 -0.281262469816 -2.48826293059e-07 0 0 0 0)
(3.15143958018e-07 6.4526194734e-08 0 -0.281262182314 2.00123169756e-07 0 0 0 0)
(-2.88077885916e-07 -2.66746690292e-08 0 -0.281262231275 -4.87707772249e-08 0 0 0 0)
(1.14778930946e-08 1.58622943647e-08 0 -0.281262089388 1.16738037038e-07 0 0 0 0)
(-1.45774095436e-07 -9.78115018793e-09 0 -0.281262097835 1.49181545255e-08 0 0 0 0)
(-7.93475242638e-08 -4.92636030079e-09 0 -0.28126201434 9.01834735764e-08 0 0 0 0)
(-8.11951860327e-08 -3.40232798269e-08 0 -0.281262035941 2.37757705318e-08 0 0 0 0)
(-5.6696844079e-08 5.17669794926e-08 0 -0.281262038126 1.45577105704e-08 0 0 0 0)
(-1.9730836257e-07 1.3042932458e-07 0 -0.281262019558 1.43407271027e-07 0 0 0 0)
(-2.9203471614e-07 7.92541095922e-08 0 -0.281262073758 2.43536520002e-07 0 0 0 0)
(-2.57946092249e-07 -3.74635320531e-08 0 -0.281261910205 1.95377877244e-07 0 0 0 0)
(-1.65694539308e-07 -1.08796928478e-07 0 -0.281261734746 1.21457109448e-07 0 0 0 0)
(-8.33553118986e-08 -1.00892806427e-07 0 -0.281261595653 4.07913608293e-08 0 0 0 0)
(-6.26745367455e-08 -4.77787951223e-08 0 -0.281261492409 1.13007655693e-08 0 0 0 0)
(-6.44682372366e-08 -3.18756404881e-08 0 -0.281261471422 9.59052290437e-09 0 0 0 0)
(-5.23748659199e-08 -3.1923249583e-08 0 -0.281261467026 -2.84112331941e-09 0 0 0 0)
(-4.16971899567e-08 -3.1593762928e-08 0 -0.281261477391 -9.49342879829e-09 0 0 0 0)
(-3.16690405032e-08 -3.2531077185e-08 0 -0.281261502924 -2.48327363094e-08 0 0 0 0)
(-2.17921475024e-08 -2.78452347142e-08 0 -0.28126153822 -3.58349939372e-08 0 0 0 0)
(-1.54726068615e-08 -1.80941205912e-08 0 -0.281261578553 -4.80799294413e-08 0 0 0 0)
(-1.25261097165e-08 -1.31914446625e-09 0 -0.281261619159 -5.08413042261e-08 0 0 0 0)
(-1.62005043299e-08 2.89032704226e-08 0 -0.281261655098 -4.93284229469e-08 0 0 0 0)
(-2.96311542661e-08 8.6422043789e-08 0 -0.281261684988 -3.42175201935e-08 0 0 0 0)
(-7.13500887057e-08 1.66440002518e-07 0 -0.281261697035 6.74653332512e-09 0 0 0 0)
(0.0534907544823 -0.0092311976774 0 -0.330496235693 -0.0539953956314 0 0 0 0)
(0.00329297783867 0.00939686992836 0 -0.381596940734 -0.00222541520748 0 0 0 0)
(-0.00117848947477 0.00038400342772 0 -0.370762488148 -8.54038736076e-05 0 0 0 0)
(0.000844420441655 -9.09428818124e-06 0 -0.38040200026 0.000155991708609 0 0 0 0)
(-0.000730392502491 -2.96488013658e-06 0 -0.374039015768 -8.34403975815e-05 0 0 0 0)
(0.000633134792816 1.16997981645e-05 0 -0.378983959247 6.03750657039e-05 0 0 0 0)
(-0.000541525662388 -1.6459579081e-05 0 -0.374377713978 -2.05144405165e-05 0 0 0 0)
(0.000433737994772 1.08349839309e-06 0 -0.377541742775 2.67582316715e-05 0 0 0 0)
(-0.000351993479262 -2.65766786418e-06 0 -0.375297484477 -1.95878322155e-05 0 0 0 0)
(0.000281188308916 1.58072882991e-06 0 -0.376814208522 1.74154386403e-05 0 0 0 0)
(-0.000223705078853 -1.90264767954e-06 0 -0.375792531119 -1.3607145746e-05 0 0 0 0)
(0.000175539433655 1.55043446319e-06 0 -0.376456099714 1.14078154232e-05 0 0 0 0)
(-0.00013652924505 -1.55147273426e-06 0 -0.376033872528 -9.07942621544e-06 0 0 0 0)
(0.000104696563104 1.39984653758e-06 0 -0.376292433062 7.46519989566e-06 0 0 0 0)
(-7.93870430597e-05 -1.2966858888e-06 0 -0.376139925162 -5.94191325752e-06 0 0 0 0)
(5.92183245541e-05 1.18418779074e-06 0 -0.376225171288 4.79505400679e-06 0 0 0 0)
(-4.36344924167e-05 -1.08816303004e-06 0 -0.376180265879 -3.7466481921e-06 0 0 0 0)
(3.1520736642e-05 9.6640489283e-07 0 -0.376201685871 2.97331518356e-06 0 0 0 0)
(-2.24880631911e-05 -8.38344186378e-07 0 -0.376193398314 -2.27018128446e-06 0 0 0 0)
(1.56724665441e-05 7.00594935552e-07 0 -0.376194942908 1.72685778436e-06 0 0 0 0)
(-1.0739126413e-05 -5.72743962237e-07 0 -0.376196016932 -1.3167494566e-06 0 0 0 0)
(7.12984603255e-06 5.11655709675e-07 0 -0.376194040053 1.00329898662e-06 0 0 0 0)
(-4.76106299021e-06 -3.93159812571e-07 0 -0.376195768848 -6.58413266772e-07 0 0 0 0)
(2.95074216897e-06 2.82215637655e-07 0 -0.376194129405 5.27191787549e-07 0 0 0 0)
(-1.9489600878e-06 -2.20070196672e-07 0 -0.37619522194 -2.92573612297e-07 0 0 0 0)
(1.05617127684e-06 1.73369146958e-07 0 -0.376194665313 2.78476908432e-07 0 0 0 0)
(-7.42587728726e-07 -1.24349398819e-07 0 -0.376195071198 -1.02716593698e-07 0 0 0 0)
(3.47442775102e-07 7.93539335157e-08 0 -0.376194714277 9.51439497755e-08 0 0 0 0)
(-2.74354706074e-07 -3.15929786762e-08 0 -0.376194866592 -1.91195616231e-08 0 0 0 0)
(3.68111248186e-08 2.15716972936e-08 0 -0.376194715067 7.91723814837e-08 0 0 0 0)
(-1.24415050942e-07 -1.19756760976e-08 0 -0.37619467833 -6.93419868003e-10 0 0 0 0)
(-6.35427382476e-08 -5.11261623432e-09 0 -0.376194545865 6.57488716913e-08 0 0 0 0)
(-7.87066082048e-08 -4.80611706497e-08 0 -0.376194523801 -2.83500595472e-09 0 0 0 0)
(-3.92146728133e-08 7.44779505461e-08 0 -0.376194375 -2.59700953479e-08 0 0 0 0)
(-1.8652892811e-07 1.72783056694e-07 0 -0.376194257785 1.44790961286e-07 0 0 0 0)
(-2.52678773056e-07 8.15663928865e-08 0 -0.376194221785 2.08164412323e-07 0 0 0 0)
(-1.76678205353e-07 -6.68194329539e-08 0 -0.376193984409 1.19505015154e-07 0 0 0 0)
(-9.75184957547e-08 -1.38072011047e-07 0 -0.376193791787 5.88816103996e-08 0 0 0 0)
(-3.32051261759e-08 -1.20066772886e-07 0 -0.376193690165 -1.02704846965e-08 0 0 0 0)
(-3.4361269381e-08 -5.23776443e-08 0 -0.376193634321 -1.94739583226e-08 0 0 0 0)
(-5.69063496094e-08 -3.28116819493e-08 0 -0.376193613931 -7.17968786605e-09 0 0 0 0)
(-5.34842148624e-08 -3.39911538841e-08 0 -0.376193614046 -9.18814598188e-09 0 0 0 0)
(-4.97822299068e-08 -3.57901857772e-08 0 -0.376193624392 -6.06683261219e-09 0 0 0 0)
(-4.82363333967e-08 -3.84558344524e-08 0 -0.376193646966 -1.6322448058e-08 0 0 0 0)
(-4.52152783497e-08 -3.38371812438e-08 0 -0.376193682922 -1.90185268281e-08 0 0 0 0)
(-4.17236665649e-08 -2.24463062733e-08 0 -0.376193729441 -3.02372084433e-08 0 0 0 0)
(-3.74783105546e-08 -1.75480699725e-09 0 -0.37619377578 -3.24189619087e-08 0 0 0 0)
(-3.77794873962e-08 3.29389614176e-08 0 -0.376193813512 -3.41497580768e-08 0 0 0 0)
(-4.24042102842e-08 1.03728094606e-07 0 -0.376193837963 -2.93560522592e-08 0 0 0 0)
(-7.24483783923e-08 2.0991324838e-07 0 -0.376193849813 -1.71461338388e-09 0 0 0 0)
(0.0332389094569 -0.0103814988668 0 -0.400718796539 -0.0339680324514 0 0 0 0)
(0.00207015087184 0.0105601686418 0 -0.472061278528 -0.00117319310603 0 0 0 0)
(-0.00115202074126 0.000442415145297 0 -0.455686803203 0.000232306363608 0 0 0 0)
(0.000755640928162 -1.22324399006e-05 0 -0.467491831262 2.63330428262e-05 0 0 0 0)
(-0.000697721748656 -5.35341934264e-06 0 -0.458776488408 4.17668507014e-05 0 0 0 0)
(0.000623877285067 1.23559165341e-05 0 -0.465875504123 -7.36990126359e-05 0 0 0 0)
(-0.000491134033274 -1.60683590202e-05 0 -0.459722801219 3.74648569222e-05 0 0 0 0)
(0.000400281203515 8.08630869483e-07 0 -0.46399519904 -3.117992242e-05 0 0 0 0)
(-0.000323969153882 -2.53136533789e-06 0 -0.460933963761 2.47969810787e-05 0 0 0 0)
(0.000260663881604 1.46817602629e-06 0 -0.463049495673 -2.06756761367e-05 0 0 0 0)
(-0.000207801036869 -1.80323017893e-06 0 -0.461594482904 1.66999636463e-05 0 0 0 0)
(0.000163988062802 1.46941804078e-06 0 -0.462566539971 -1.34924250173e-05 0 0 0 0)
(-0.000128104642994 -1.47174092179e-06 0 -0.461928288262 1.08041615119e-05 0 0 0 0)
(9.88022998879e-05 1.32052767523e-06 0 -0.462335165317 -8.3964430636e-06 0 0 0 0)
(-7.53376430512e-05 -1.23206951713e-06 0 -0.462082709592 6.48806132199e-06 0 0 0 0)
(5.65789231735e-05 1.12638672649e-06 0 -0.462233699717 -4.87472872726e-06 0 0 0 0)
(-4.19466083507e-05 -1.03978836234e-06 0 -0.462146582056 3.59178223573e-06 0 0 0 0)
(3.04683677924e-05 9.30365244614e-07 0 -0.462194290003 -2.53338857596e-06 0 0 0 0)
(-2.18774641039e-05 -8.1429764906e-07 0 -0.462170054634 1.80103910456e-06 0 0 0 0)
(1.53796781119e-05 6.79077181791e-07 0 -0.462180808381 -1.22598629726e-06 0 0 0 0)
(-1.06002522308e-05 -5.56240701803e-07 0 -0.462176873071 7.7807702964e-07 0 0 0 0)
(7.10568883305e-06 5.07068334951e-07 0 -0.46217758275 -4.51786230751e-07 0 0 0 0)
(-4.74338103558e-06 -3.8985107347e-07 0 -0.462178026233 2.92526987751e-07 0 0 0 0)
(2.98554864692e-06 2.84824794376e-07 0 -0.462176988294 -1.20849540934e-07 0 0 0 0)
(-1.98663340132e-06 -2.20594613733e-07 0 -0.462177803856 1.22117650478e-07 0 0 0 0)
(1.07098811805e-06 1.74054683053e-07 0 -0.462177165209 3.11143105291e-08 0 0 0 0)
(-7.4223822901e-07 -1.33165058492e-07 0 -0.462177528955 2.80868995111e-08 0 0 0 0)
(3.60175130527e-07 8.24573255815e-08 0 -0.462177131508 3.95457187638e-09 0 0 0 0)
(-2.85052589174e-07 -2.95093898861e-08 0 -0.462177372692 1.47477786063e-08 0 0 0 0)
(5.92816029714e-08 1.97348195275e-08 0 -0.462177213149 3.39956842797e-08 0 0 0 0)
(-9.9269126822e-08 -1.24364724923e-08 0 -0.462177148153 -2.48665139363e-08 0 0 0 0)
(-3.64254851393e-08 -6.53101036411e-09 0 -0.462176965229 3.08732288228e-08 0 0 0 0)
(-3.06452502623e-08 -6.14668596246e-08 0 -0.462176904934 -2.69671672985e-08 0 0 0 0)
(2.57620515095e-08 1.00502251224e-07 0 -0.462176651108 -6.8246615493e-08 0 0 0 0)
(-1.47702514079e-07 2.08820172054e-07 0 -0.462176513338 1.24683078994e-07 0 0 0 0)
(-1.93601004212e-07 6.9481236331e-08 0 -0.462176430356 1.52726012608e-07 0 0 0 0)
(-9.65006287045e-08 -9.34987112068e-08 0 -0.46217614929 4.22180327855e-08 0 0 0 0)
(-4.87859035794e-08 -1.60784346971e-07 0 -0.462175981161 2.06127292385e-08 0 0 0 0)
(-1.6173844517e-08 -1.33374538839e-07 0 -0.462175918127 -4.55786062368e-08 0 0 0 0)
(-2.82352333863e-08 -4.66616876828e-08 0 -0.462175887261 -3.66752600712e-08 0 0 0 0)
(-5.49683473004e-08 -2.75533841207e-08 0 -0.462175877506 -1.28746895831e-08 0 0 0 0)
(-5.7531413188e-08 -3.15291842768e-08 0 -0.46217587677 -1.0444327158e-08 0 0 0 0)
(-5.89751791636e-08 -3.57131958032e-08 0 -0.462175889261 1.87702941431e-09 0 0 0 0)
(-6.41141998182e-08 -3.97738906651e-08 0 -0.462175913131 -3.59800154298e-09 0 0 0 0)
(-6.9820665492e-08 -3.62419022013e-08 0 -0.462175945708 3.86613250844e-09 0 0 0 0)
(-7.22216795787e-08 -2.61939018484e-08 0 -0.462175996628 -4.01508000234e-09 0 0 0 0)
(-6.66158403997e-08 -3.7671602994e-09 0 -0.462176058196 -6.61590049025e-09 0 0 0 0)
(-5.85141697818e-08 3.13946447471e-08 0 -0.462176106935 -1.62059080897e-08 0 0 0 0)
(-5.55703810449e-08 1.10791043232e-07 0 -0.462176123188 -2.21861167088e-08 0 0 0 0)
(-7.95712797415e-08 2.40795802255e-07 0 -0.462176138134 -9.17758536112e-09 0 0 0 0)
(0.0113065424266 -0.0109167040967 0 -0.466585405114 -0.0122556195631 0 0 0 0)
(0.000621303697482 0.011127670537 0 -0.558144689154 0.000613870327943 0 0 0 0)
(-0.00098071362728 0.000448829166251 0 -0.533115771405 0.000291812153174 0 0 0 0)
(0.000698801135277 -1.93890022964e-05 0 -0.546846186722 -4.00330668968e-05 0 0 0 0)
(-0.000659390793465 -9.11570040222e-06 0 -0.535262023471 0.000114418004464 0 0 0 0)
(0.000596820378992 1.18731573685e-05 0 -0.54457873778 -0.000146320415116 0 0 0 0)
(-0.00043491067608 -1.40224972253e-05 0 -0.53695974627 6.35330755927e-05 0 0 0 0)
(0.000362440199588 4.32365759196e-07 0 -0.542357610858 -5.92659600472e-05 0 0 0 0)
(-0.00029211638465 -2.09477463838e-06 0 -0.538445402851 4.65692917695e-05 0 0 0 0)
(0.000236956650444 1.13117452147e-06 0 -0.541198064102 -3.97698505874e-05 0 0 0 0)
(-0.000189159949801 -1.46940350574e-06 0 -0.539271419489 3.21869071223e-05 0 0 0 0)
(0.000150183794128 1.17329418136e-06 0 -0.540587868115 -2.64550394654e-05 0 0 0 0)
(-0.000117806513039 -1.19814419644e-06 0 -0.539701751523 2.12358697829e-05 0 0 0 0)
(9.14113208705e-05 1.07617590807e-06 0 -0.54028393859 -1.69639766257e-05 0 0 0 0)
(-7.00950732751e-05 -1.01403116092e-06 0 -0.539909638288 1.33342653081e-05 0 0 0 0)
(5.30029980562e-05 9.33654282801e-07 0 -0.540143511117 -1.03457020688e-05 0 0 0 0)
(-3.95527088764e-05 -8.70146916773e-07 0 -0.540001518912 7.89038950847e-06 0 0 0 0)
(2.89286059405e-05 7.88441763832e-07 0 -0.540084652511 -5.8289403764e-06 0 0 0 0)
(-2.08978143544e-05 -7.00608644378e-07 0 -0.540037725596 4.2620700355e-06 0 0 0 0)
(1.48159324473e-05 5.84106268572e-07 0 -0.540062373164 -3.09097156819e-06 0 0 0 0)
(-1.03034966296e-05 -4.77609404945e-07 0 -0.540050424078 2.12949575307e-06 0 0 0 0)
(6.96264296414e-06 4.49050045912e-07 0 -0.540055741898 -1.42833132793e-06 0 0 0 0)
(-4.66296288936e-06 -3.47334817056e-07 0 -0.540053714761 9.36900835577e-07 0 0 0 0)
(2.98163130723e-06 2.57980584269e-07 0 -0.540053914123 -5.88968966408e-07 0 0 0 0)
(-1.9757939244e-06 -1.9591615808e-07 0 -0.540054088978 4.06358983653e-07 0 0 0 0)
(1.10186190938e-06 1.57046445703e-07 0 -0.540053477125 -1.6862994734e-07 0 0 0 0)
(-7.32293949509e-07 -1.3041601584e-07 0 -0.540053737944 1.20383975967e-07 0 0 0 0)
(3.7633565715e-07 7.71766553627e-08 0 -0.540053331926 -7.31207410801e-08 0 0 0 0)
(-2.90255560842e-07 -2.5026664168e-08 0 -0.540053503537 4.40769496067e-08 0 0 0 0)
(8.82452007362e-08 1.21267161778e-08 0 -0.540053266388 -8.66507724305e-09 0 0 0 0)
(-6.31422233111e-08 -1.20222753794e-08 0 -0.540053213332 -4.67379045007e-08 0 0 0 0)
(-1.57934872604e-09 -6.52958886319e-09 0 -0.540053004216 -1.88562605634e-09 0 0 0 0)
(9.32424711477e-09 -7.51224980475e-08 0 -0.540052950129 -5.26892774395e-08 0 0 0 0)
(7.41350089586e-08 1.20545571694e-07 0 -0.540052833795 -1.17726753916e-07 0 0 0 0)
(-1.18968673627e-07 2.39274130617e-07 0 -0.540052730683 7.8619605396e-08 0 0 0 0)
(-1.33445784442e-07 5.38977994239e-08 0 -0.540052597238 9.141926427e-08 0 0 0 0)
(-2.41988323401e-08 -1.11466690509e-07 0 -0.540052257955 -3.92529469596e-08 0 0 0 0)
(-1.46237116537e-08 -1.70738352851e-07 0 -0.54005207434 -1.60039071853e-07 0 0 0 0)
(2.08389492739e-09 -1.41326663821e-07 0 -0.540052071651 -5.39395816919e-08 0 0 0 0)
(-1.8474003e-08 -3.91823851037e-08 0 -0.540052024878 -4.03456030323e-08 0 0 0 0)
(-5.25882490635e-08 -2.19632710621e-08 0 -0.540052023664 -1.37974573333e-08 0 0 0 0)
(-5.90275305233e-08 -2.73589600229e-08 0 -0.540052020352 -1.05505623277e-08 0 0 0 0)
(-6.71453668283e-08 -3.29201840772e-08 0 -0.540052031276 8.96393188259e-09 0 0 0 0)
(-7.66553162489e-08 -3.74686391746e-08 0 -0.540052055503 5.52568755899e-09 0 0 0 0)
(-8.96536226523e-08 -3.44817818738e-08 0 -0.54005208157 2.2328957103e-08 0 0 0 0)
(-1.04304326673e-07 -2.82730737005e-08 0 -0.540052124609 2.22973806371e-08 0 0 0 0)
(-1.01685245995e-07 -8.86439047064e-09 0 -0.54005219791 2.21486363652e-08 0 0 0 0)
(-7.75662780888e-08 2.36630545796e-08 0 -0.540052262433 -2.61344223302e-09 0 0 0 0)
(-6.30610135079e-08 1.09093676328e-07 0 -0.540052271406 -1.90398501277e-08 0 0 0 0)
(-8.99552328634e-08 2.6315367183e-07 0 -0.540052280994 -2.08671569558e-08 0 0 0 0)
(-0.0116663549841 -0.010902888305 0 -0.534079839066 0.0110127559131 0 0 0 0)
(-0.000856412359281 0.0111503580149 0 -0.634521327394 0.00198569154993 0 0 0 0)
(-0.000659549226653 0.000412611505585 0 -0.602777380085 7.69527494703e-05 0 0 0 0)
(0.000678655286359 -2.096554614e-05 0 -0.618977523646 -0.000115183309131 0 0 0 0)
(-0.0006060027699 -1.17988162036e-05 0 -0.604380721401 0.000162452824918 0 0 0 0)
(0.000553588857758 1.02252134752e-05 0 -0.615834808572 -0.000180457486223 0 0 0 0)
(-0.00037794960821 -1.13689530984e-05 0 -0.606860553266 7.21947084404e-05 0 0 0 0)
(0.000321526564223 1.1699409593e-07 0 -0.613368656379 -7.14490304624e-05 0 0 0 0)
(-0.000257959651578 -1.5707535431e-06 0 -0.608608474445 5.54829071615e-05 0 0 0 0)
(0.000210915961163 7.50766457291e-07 0 -0.612011997798 -4.82571796447e-05 0 0 0 0)
(-0.000168571556663 -1.0705699283e-06 0 -0.609595388993 3.90275681209e-05 0 0 0 0)
(0.00013461235459 8.30409831015e-07 0 -0.611278235457 -3.2480529927e-05 0 0 0 0)
(-0.000106010583992 -8.73192914565e-07 0 -0.61012256165 2.62575545177e-05 0 0 0 0)
(8.27419715811e-05 7.87169791368e-07 0 -0.610900349427 -2.12385859616e-05 0 0 0 0)
(-6.37947940108e-05 -7.52026508636e-07 0 -0.610386573693 1.68702404759e-05 0 0 0 0)
(4.85532953054e-05 7.02843564907e-07 0 -0.610718005634 -1.32843216045e-05 0 0 0 0)
(-3.64787949335e-05 -6.61092986812e-07 0 -0.610509200923 1.02786816236e-05 0 0 0 0)
(2.68947075404e-05 6.04084435129e-07 0 -0.610636883918 -7.76183060672e-06 0 0 0 0)
(-1.95323520697e-05 -5.52719730745e-07 0 -0.610560645408 5.72783623578e-06 0 0 0 0)
(1.39576073484e-05 4.60619359697e-07 0 -0.610604147942 -4.22963071468e-06 0 0 0 0)
(-9.81136550315e-06 -3.72948663887e-07 0 -0.610580694142 3.00814074522e-06 0 0 0 0)
(6.68922579794e-06 3.67085737475e-07 0 -0.610592741113 -2.08744229132e-06 0 0 0 0)
(-4.49256813086e-06 -2.84854711828e-07 0 -0.610586703701 1.37803693855e-06 0 0 0 0)
(2.93090284701e-06 2.15145094512e-07 0 -0.610589041992 -9.29474979252e-07 0 0 0 0)
(-1.9153013576e-06 -1.60322311399e-07 0 -0.610588037553 5.964093771e-07 0 0 0 0)
(1.12691695693e-06 1.29931722308e-07 0 -0.610587881631 -3.44382404724e-07 0 0 0 0)
(-7.13380011733e-07 -1.18813099641e-07 0 -0.610587872073 1.87612743403e-07 0 0 0 0)
(4.01186232103e-07 6.97057625011e-08 0 -0.610587579458 -1.41250958133e-07 0 0 0 0)
(-2.70938395946e-07 -1.76806327393e-08 0 -0.610587652943 6.09401804377e-08 0 0 0 0)
(1.19403024841e-07 8.23612395812e-10 0 -0.610587322725 -5.1725003038e-08 0 0 0 0)
(-3.92666271531e-08 -1.04792363386e-08 0 -0.610587354735 -6.82043717095e-08 0 0 0 0)
(2.49510596e-08 -8.44777317202e-09 0 -0.610587216025 -2.61494201977e-08 0 0 0 0)
(1.38788326897e-08 -9.02771226883e-08 0 -0.610587164408 -7.11430538923e-08 0 0 0 0)
(8.50960732001e-08 1.36993019512e-07 0 -0.610587218641 -1.42079201288e-07 0 0 0 0)
(-8.23369465977e-08 2.65581380085e-07 0 -0.610587158404 3.38541821585e-08 0 0 0 0)
(-5.46374789657e-08 3.40796248487e-08 0 -0.610586844773 2.20326978452e-08 0 0 0 0)
(6.29171701098e-08 -1.69096302592e-07 0 -0.610586509687 -1.17208969837e-07 0 0 0 0)
(1.07803637367e-08 -1.64372859187e-07 0 -0.610586229519 -3.63978129325e-07 0 0 0 0)
(2.16042817163e-09 -9.56942617844e-08 0 -0.610586259667 -6.17685122722e-08 0 0 0 0)
(-1.1128003485e-08 -3.19362637238e-08 0 -0.610586258566 -3.88513103935e-08 0 0 0 0)
(-5.3068711956e-08 -1.63660110674e-08 0 -0.610586267176 -1.23646677701e-08 0 0 0 0)
(-6.07591672554e-08 -2.21813725416e-08 0 -0.610586263935 -8.28879145358e-09 0 0 0 0)
(-7.42149355576e-08 -2.91532433195e-08 0 -0.610586272599 1.57396009778e-08 0 0 0 0)
(-8.69535159912e-08 -3.35709847107e-08 0 -0.610586291247 1.22541029772e-08 0 0 0 0)
(-1.03285233395e-07 -2.86661837429e-08 0 -0.610586314961 3.5488897048e-08 0 0 0 0)
(-1.31424653647e-07 -2.64779063765e-08 0 -0.610586351877 4.63171241622e-08 0 0 0 0)
(-1.39573974991e-07 -1.71966242837e-08 0 -0.61058641954 5.52492182893e-08 0 0 0 0)
(-9.87869788243e-08 8.77240998863e-09 0 -0.610586504805 1.34239132319e-08 0 0 0 0)
(-6.67596735868e-08 1.00554261531e-07 0 -0.61058653009 -1.46446739494e-08 0 0 0 0)
(-9.95626566438e-08 2.74369713711e-07 0 -0.610586535575 -3.00652736293e-08 0 0 0 0)
(-0.0351015199287 -0.010433685887 0 -0.604945044939 0.0347702443294 0 0 0 0)
(-0.00211450115721 0.0107014166802 0 -0.697234792399 0.00282033643823 0 0 0 0)