/*--------------------------------*- C++ -*----------------------------------*\
  =========                 |
  \\      /  F ield         | OpenFOAM: The Open Source CFD Toolbox
   \\    /   O peration     | Website:  https://openfoam.org
    \\  /    A nd           | Version:  9
     \\/     M anipulation  |
\*---------------------------------------------------------------------------*/
FoamFile
{
    format      ascii;
    class       volScalarField;
    location    "120";
    object      p;
}
// * * * * * * * * * * * * * * * * * * * * * * * * * * * * * * * * * * * * * //

dimensions      [1 -1 -2 0 0 0 0];

internalField   nonuniform List<scalar> 
12230
(
33.4945702293
31.8263225257
30.8122399417
29.1359040171
27.9974516316
26.5574935602
25.4566114132
24.217631747
23.1870889511
22.1069395677
21.1586516447
20.2070484758
19.3434170372
18.4990522209
17.7174867925
16.9647968851
16.2602138589
15.5873171734
14.9535753428
14.3509953202
13.7817040684
13.2415847593
12.7305414462
12.2461719813
11.7875745384
11.3530981957
10.941629794
10.5518669456
10.1827083025
9.83304279564
9.50185177284
9.18815398423
8.89102794909
8.6095971366
8.34303275692
8.09054928212
7.85140326541
7.62489009945
7.41034243987
7.20712800581
7.01464823418
6.83233615096
6.6596545958
6.49609484215
6.34117502723
6.19443874578
6.05545370556
5.92381045088
5.79912114881
5.68101845537
33.4968210597
31.8297447283
30.8133269813
29.1365701818
27.9971057975
26.5577037465
25.4563543127
24.2177932947
23.1869401147
22.1070487329
21.1585617333
20.2071160193
19.3433647773
18.4990917248
17.717457324
16.964818458
16.2601982235
15.5873282105
14.9535676001
14.3510005444
13.7817005498
13.2415869953
12.7305399871
12.2461728312
11.787573987
11.353098454
10.9416295947
10.5518670023
10.1827082316
9.83304279074
9.50185167893
9.18815387948
8.89102784867
8.60959704773
8.343032668
8.09054942742
7.85140340869
7.62489023102
7.41034246583
7.20712793342
7.01464818588
6.83233610808
6.65965455565
6.49609480593
6.34117499065
6.1944387094
6.05545366912
5.92381041751
5.7991211149
5.68101841839
33.5041703989
31.833561791
30.8153223617
29.1365671556
27.9972503349
26.5574824412
25.4564079886
24.2176999538
23.1869931083
22.1069948507
21.1586001216
20.2070824225
19.3433905928
18.4990710138
17.717473376
16.9648059
16.2602077567
15.5873209704
14.9535729938
14.3509965498
13.7817034161
13.2415849282
12.7305413924
12.2461718455
11.7875746853
11.3530980262
10.9416298333
10.5518668043
10.1827082855
9.83304271473
9.50185171407
9.18815383311
8.89102785634
8.60959726089
8.3430328138
8.09054936793
7.85140332153
7.62489010095
7.41034228482
7.20712783622
7.01464814095
6.83233607981
6.65965453734
6.4960948051
6.34117500662
6.19443874428
6.05545371766
5.9238104838
5.79912119348
5.68101849719
33.5171168572
31.836712579
30.8165952811
29.1364372281
27.9974581015
26.5572350153
25.456509451
24.2175872968
23.1870682771
22.1069270514
21.1586509316
20.2070403696
19.3434224133
18.4990455316
17.7174927828
16.9647908264
16.2602191726
15.5873124399
14.9535793646
14.3509918436
13.7817068038
13.2415824788
12.730543075
12.2461706935
11.7875755358
11.3530975418
10.9416302056
10.5518667083
10.1827084741
9.83304265376
9.50185202231
9.18815408312
8.89102811545
8.6095971909
8.34303250656
8.09054924461
7.85140321277
7.62488989144
7.41034211278
7.20712778512
7.0146481149
6.83233607266
6.65965453488
6.49609481562
6.34117501862
6.19443876632
6.05545374104
5.92381051856
5.79912124579
5.68101854597
33.5348628368
31.8371646983
30.8165917766
29.1362098755
27.9976293105
26.5570912652
25.4565794121
24.217517334
23.1871174373
22.1068839398
21.1586837526
20.2070133444
19.3434429346
18.4990288935
17.7175056762
16.9647807521
16.2602269825
15.5873064755
14.9535838746
14.3509884222
13.7817093287
13.2415806021
12.7305443998
12.2461697318
11.7875761787
11.3530971182
10.9416303675
10.5518664104
10.1827085758
9.83304261365
9.50185205075
9.18815398591
8.89102795455
8.60959712987
8.34303239689
8.09054912761
7.8514031336
7.6248898452
7.41034210642
7.2071277629
7.01464808813
6.83233605834
6.65965451453
6.49609480556
6.3411750184
6.19443878508
6.0554537668
5.92381056119
5.79912133224
5.68101864674
33.5540014896
31.8357357996
30.8160232756
29.1357918909
27.9977714653
26.5570021031
25.4566277238
24.2174685484
23.1871524496
22.1068533687
21.1587071112
20.206993943
19.3434580416
18.4990166832
17.7175153205
16.9647730374
16.2602329147
15.5873018076
14.9535874555
14.350985721
13.7817114745
13.2415792833
12.7305457734
12.2461690651
11.7875767661
11.3530966947
10.9416305849
10.5518662488
10.1827086056
9.8330423279
9.50185203785
9.18815384978
8.89102784698
8.60959711568
8.34303234982
8.09054900865
7.85140306033
7.62488977044
7.41034207361
7.20712772337
7.01464804663
6.83233603409
6.65965448947
6.49609479364
6.34117500776
6.19443880075
6.05545379355
5.92381059742
5.79912141749
5.68101877287
33.5714192136
31.8355295921
30.8156476079
29.1353102
27.997872145
26.5569354062
25.4566670553
24.217429403
23.1871810496
22.1068286305
21.1587261785
20.2069781371
19.343470474
18.4990066844
17.7175232697
16.9647667443
16.2602377832
15.5872979428
14.95359046
14.3509834926
13.7817132568
13.2415779258
12.7305465518
12.2461682318
11.787577094
11.3530963244
10.9416307675
10.5518660777
10.1827086607
9.83304223843
9.50185206187
9.18815373283
8.89102784581
8.60959719335
8.34303231629
8.09054887768
7.85140296083
7.62488954806
7.41034203679
7.20712768362
7.01464800616
6.83233601058
6.65965446117
6.4960947819
6.34117499058
6.19443881079
6.05545383001
5.92381065538
5.79912153167
5.68101897329
33.5869404949
31.8376722149
30.8156687565
29.1349426594
27.9979478048
26.5568875623
25.4567000917
24.2173987271
23.1872039337
22.1068090686
21.1587413333
20.2069657036
19.3434803366
18.4989988055
17.7175294172
16.9647617894
16.2602415977
15.5872949389
14.953592721
14.3509816106
13.781714574
13.2415768951
12.7305472583
12.2461676749
11.7875774348
11.3530960245
10.9416309038
10.5518659319
10.1827087007
9.8330421729
9.50185208151
9.18815366325
8.89102787889
8.6095973206
8.34303228093
8.09054874106
7.8514028565
7.62488952407
7.41034201953
7.2071276832
7.01464798922
6.83233601182
6.65965444855
6.49609478636
6.34117498576
6.19443881964
6.05545386995
5.92381074115
5.79912167655
5.6810192512
33.6017194832
31.8408532208
30.8159561045
29.1347321568
27.9980025774
26.5568552355
25.4567262747
24.2173761792
23.187221294
22.1067945059
21.1587526046
20.206956349
19.3434874568
18.4989929585
17.7175339499
16.9647581615
16.2602443788
15.5872927574
14.9535943597
14.3509803312
13.7817155604
13.2415761436
12.7305477734
12.2461672745
11.7875776959
11.35309581
10.9416310262
10.5518658649
10.1827087494
9.83304213921
9.50185206797
9.18815359658
8.89102791812
8.60959750568
8.34303225754
8.09054859395
7.85140274774
7.62488960414
7.41034203714
7.20712771718
7.01464799536
6.83233602876
6.65965444445
6.49609479649
6.34117498669
6.19443881764
6.0554538907
5.92381084656
5.79912185927
5.68101962468
33.6163269446
31.8435806532
30.8164120304
29.1345584827
27.9980395546
26.5568324961
25.4567449674
24.2173604247
23.1872337343
22.1067843224
21.1587605925
20.2069498823
19.3434925049
18.4989889358
17.7175370901
16.9647556967
16.2602462951
15.5872912892
14.9535954899
14.3509795195
13.7817162501
13.241575655
12.7305481342
12.2461670174
11.7875778886
11.3530956696
10.9416311215
10.5518658436
10.1827087988
9.83304212668
9.50185240166
9.18815720942
8.89103158135
8.60960124268
8.34303563376
8.09055164887
7.85140570881
7.62489251807
7.41034485442
7.20713039678
7.0146505218
6.83233842889
6.65965666629
6.49609689241
6.34117694696
6.19444063541
6.0554555694
5.9238125058
5.79912350259
5.68102134313
33.6308425503
31.8451720164
30.8170050563
29.1343354105
27.9980722596
26.5568228865
25.4567575752
24.2173511034
23.1872417014
22.1067781269
21.1587655751
20.2069459694
19.3434956151
18.4989865403
17.7175390096
16.9647542511
16.2602474583
15.5872904397
14.9535961835
14.3509790599
13.7817166726
13.2415795618
12.7305523389
12.2461705633
11.7875813652
11.353098518
10.9416337742
10.551867972
10.1827105209
9.83304333266
9.50185277767
9.18815741432
8.8910316119
8.60960117425
8.34303500529
8.09055044725
7.8514043265
7.62489100313
7.41034318853
7.20712855538
7.01464845257
6.83233617848
6.65965423669
6.49609432899
6.34117424191
6.19443777344
6.05545254125
5.92380946458
5.79912050962
5.68101848774
33.6453095178
31.8453539586
30.8176499284
29.1341422462
27.9980882335
26.5568279308
25.456764339
24.2173482569
23.1872451456
22.1067759757
21.1587675099
20.2069446239
19.3434967435
18.4989857411
17.7175396852
16.964758496
16.2602520462
15.5872936756
14.9535991667
14.3509808275
13.7817179425
13.24157971
12.7305520337
12.2461695056
11.7875798514
11.3530963957
10.9416312
10.5518650046
10.1827071818
9.83303959968
9.50184942606
9.18815731482
8.891031745
8.60960152315
8.34303504257
8.09055006145
7.85140418649
7.62489100077
7.41034323837
7.20712860119
7.0146484714
6.83233621366
6.65965425521
6.49609438442
6.34117427646
6.19443774499
6.05545245224
5.92380940612
5.79912055552
5.68101873513
33.6594909913
31.843975147
30.8181863998
29.1340968347
27.9980869533
26.5568434936
25.4567660054
24.217350791
23.1872446978
22.106783682
21.1587727713
20.2069507324
19.3435000507
18.4989889932
17.71754032
16.9647587338
16.2602504737
15.587291764
14.9535960456
14.3509773581
13.7817137671
13.241579796
12.7305520159
12.2461695747
11.7875798863
11.3530964212
10.9416311933
10.5518650556
10.1827072338
9.83303963672
9.50184920867
9.18815736054
8.89103190756
8.60960184088
8.34303534251
8.09054993936
7.85140431746
7.62489117504
7.41034339734
7.20712871383
7.0146485551
6.83233632197
6.65965435751
6.49609450448
6.34117431173
6.19443767416
6.0554522769
5.92380913488
5.79912033082
5.68101893632
33.6718974856
31.8411437895
30.8184725521
29.1341764374
27.9980864005
26.5568660977
25.4567785663
24.2173590833
23.187250667
22.1067864472
21.1587728768
20.206949904
19.3434967611
18.4989856834
17.7175351146
16.9647592719
16.2602501034
15.587292177
14.9535957938
14.3509776363
13.7817136378
13.2415800301
12.7305520378
12.2461697943
11.7875800253
11.3530965929
10.9416312247
10.551865122
10.1827073795
9.83303989608
9.50184935769
9.18815756688
8.89103518628
8.60960176103
8.34303634467
8.09056539169
7.85142313938
7.62490808145
7.41035871412
7.20714316593
7.01466304445
6.83235057315
6.65966811798
6.49610748718
6.34118604864
6.19444956013
6.05546516347
5.92382258664
5.79913507161
5.68103484814
33.6809366339
31.8376241814
30.8185793903
29.1342663666
27.9981129343
26.5568564102
25.4567988196
24.2173418968
23.1872599249
22.1067848491
21.15878574
20.2069512917
19.3435062171
18.4989885525
17.717542149
16.9647626936
16.2602554358
15.5872954568
14.9536000834
14.3509810417
13.7817174011
13.2415833657
12.730555287
12.2461723423
11.7875815382
11.3530964957
10.9416318533
10.5518660212
10.1827082481
9.83303992726
9.50184720497
9.188155056
8.89103166538
8.60960149658
8.34303981498
8.09056274175
7.85141699852
7.6249018097
7.41035233154
7.20713670033
7.01465622417
6.83234346437
6.65966077996
6.49610001965
6.34117889599
6.194442486
6.05545765015
5.92381488009
5.79912728805
5.68102753388
5.56976934686
5.46304433167
5.35805403749
5.25477027394
5.1531653068
5.05321185478
4.95488307
4.85815253877
4.76299428737
4.66938277332
4.57729285233
4.4866998176
4.39757936094
4.30990761291
4.22366107411
4.13881663348
4.05535157172
3.9732435508
3.89247066165
3.81301125746
3.7348440849
3.65794844353
3.58230373626
3.50788957493
3.43468606839
3.36267370959
3.29183318498
3.22214536495
3.15359128419
3.08615241544
3.01981009412
2.95454598732
2.89034182406
2.82717941163
2.76504059515
2.7039072606
2.64376127966
2.58458452053
2.52635882156
2.46906599794
2.41268782177
2.35720603363
2.30260247274
2.24885899367
2.19595754195
2.14387899818
2.09260765423
2.04212744783
1.9924151563
1.94345189994
1.89523026836
1.84773831757
1.80095693137
1.75487060284
1.70946911655
1.66474272418
1.62068229694
1.57728043094
1.53453161778
1.49243208996
1.45097984079
1.41017468952
1.37001824398
1.33051376939
1.29166609439
1.25348157613
1.21596795527
1.1791336521
1.14298736188
1.10753998778
1.0728012976
1.03878096101
1.00548926913
0.972935277413
0.941127185194
0.910071892976
0.879774281103
0.850235874173
0.821465983236
0.79347183203
5.56976930049
5.46304428038
5.358053978
5.25477020839
5.15316523161
5.05321177663
4.95488298503
4.85815243978
4.76299415982
4.66938264468
4.57729267798
4.48669956778
4.39757900995
4.30990714408
4.22366045893
4.1388158362
4.05535054574
3.97324228282
3.89246907929
3.81300934772
3.73484184472
3.65794587735
3.5823010111
3.50788685789
3.43468342058
3.36267136225
3.29183151686
3.22214488698
3.15359219979
3.08615591192
3.019816841
2.954557014
2.89035834862
2.82720284147
2.76507250384
2.70394942741
2.64381563484
2.58465318326
2.52644398033
2.46916996152
2.41281280938
2.35735437445
2.30277613742
2.24906035385
2.19618640125
2.14413757187
2.09289824074
2.04244829159
1.99276610983
1.94383342841
1.89563288394
1.84815533171
1.80138848637
1.75530918277
1.70989890771
1.66514761759
1.62104639914
1.57758508735
1.5347542744
1.49254684754
1.45095826726
1.40998613021
1.36963000812
1.32989137415
1.29077362087
1.25228311102
1.21442957471
1.17722028278
1.14065687054
1.10477673192
1.06958177846
1.03507934943
1.00129255753
0.968237228724
0.935927862768
0.904379117492
0.873603334963
0.843608646195
0.814414890619
0.786039372965
5.56976936319
5.46304432875
5.3580540114
5.25477021646
5.15316522327
5.05321175237
4.95488294152
4.85815234924
4.76299398075
4.66938235653
4.57729224654
4.48669896064
4.39757818773
4.30990606225
4.22365899952
4.13881396551
4.05534819577
3.97323945083
3.8924657032
3.81300541181
3.73483742097
3.65794096772
3.58229595578
3.50788227624
3.43467963499
3.36266873704
3.29183087298
3.22214748161
3.15359948437
3.08616936449
3.01983846162
2.95458913384
2.89040361523
2.8272642495
2.76515336313
2.70405339563
2.64394661611
2.58481525348
2.52664125821
2.46940647958
2.41309233805
2.35768024584
2.30315079812
2.24948547798
2.19666307185
2.14466472273
2.0934727466
2.04306336367
1.99341250401
1.944506701
1.89631935661
1.84881527691
1.80199309277
1.75584989231
1.71035263765
1.6654693464
1.62118519772
1.57749221502
1.53437942068
1.49183325016
1.44984517827
1.40841009192
1.36752490165
1.32718900473
1.28740491953
1.24818006975
1.20952666958
1.17145539255
1.13397150224
1.09711933369
1.06091027558
1.02536099825
0.990506764835
0.956375247326
0.922992945928
0.890385327531
0.858574139279
0.827575124007
0.797423761373
0.768155876534
5.56976937482
5.46304432292
5.35805398297
5.2547701592
5.15316514672
5.05321168574
4.95488287798
4.85815225217
4.76299389147
4.66938220704
4.57729199524
4.4866985411
4.39757754
4.30990512914
4.22365761663
4.13881200781
4.05534547371
3.97323590525
3.89246134274
3.81300006013
3.73483105508
3.65793351842
3.58228717343
3.50787270505
3.43467005582
3.36265933685
3.29182193376
3.2221398263
3.15359466848
3.08616900115
3.01984457347
2.95460426859
2.89043083279
2.82730718008
2.76521622586
2.70414099335
2.64406434809
2.5849691485
2.52683786435
2.46965260698
2.41339530475
2.35804730465
2.30359007625
2.25000233959
2.19726582772
2.14536034461
2.094264159
2.04395367022
1.99440303309
1.94558989177
1.89749413654
1.85008357994
1.80332308417
1.75719461483
1.71169756163
1.66680796249
1.62247879511
1.57867914091
1.53539705819
1.49261783179
1.45032139366
1.40849576744
1.36713287943
1.32622731244
1.28577255256
1.24577322587
1.20624184154
1.16718864625
1.12861544414
1.09056346222
1.05304199531
1.01607009418
0.979698332244
0.943973235567
0.908945494523
0.874671761022
0.841206546618
0.808594374624
0.776909973872
0.746226842289
5.56976942817
5.4630443736
5.35805401734
5.25477015204
5.15316514206
5.05321176468
4.9548830819
4.85815252667
4.7629940923
4.66938231439
4.57729197029
4.48669834153
4.39757703564
4.30990412423
4.22365608769
4.13880983123
4.0553425509
3.97323203514
3.89245635485
3.81299370983
3.7348229838
3.65792358185
3.58227508214
3.5078579013
3.43465292456
3.3626407098
3.29180200481
3.22211858367
3.1535728394
3.08614797697
3.0198262424
2.95459095928
2.89042563996
2.82731400738
2.76523978384
2.70418686587
2.64413910891
2.5850804764
2.52699491098
2.46986527787
2.41367452408
2.35840464041
2.30403973926
2.25055653599
2.19793477981
2.14616052623
2.09521246261
2.04506383959
1.99568518066
1.94705171777
1.89913930763
1.85191579265
1.80536597081
1.75944083511
1.71407590545
1.66928078697
1.62505671395
1.58134821017
1.53809708457
1.49527438001
1.45285622377
1.41081772473
1.3691370241
1.3278018628
1.28679265785
1.2460844218
1.20567511392
1.16557551989
1.12579684102
1.08640889816
1.04745202337
1.00894198163
0.970914781535
0.933411124705
0.896483962162
0.860199575263
0.824632606944
0.78985383328
0.755984577748
0.723160175352
5.5697694844
5.46304441853
5.35805398003
5.25477003335
5.15316502114
5.05321170525
4.95488309231
4.85815253841
4.7629942066
4.6693824777
4.57729218064
4.48669847186
4.39757697437
4.30990375798
4.22365527638
4.1388083539
4.05534019038
3.97322845271
3.89245130879
3.81298689735
3.73481389492
3.65791163093
3.58225989508
3.50783894347
3.43462945729
3.36261265209
3.29176995198
3.22208261306
3.15353280379
3.086104206
3.01977998734
2.95454401363
2.89038064931
2.82727469199
2.76521089647
2.70417432349
2.64415028177
2.58512390102
2.52708107475
2.47000669124
2.41388529822
2.35870011834
2.30443879818
2.25108117999
2.19860064881
2.14698939919
2.09623515033
2.04630806257
1.99717380391
1.94880843163
1.90118615835
1.85427432867
1.80804401268
1.76245737631
1.71748432356
1.67306583535
1.62911986893
1.58566425797
1.54269434762
1.50012378891
1.45788812566
1.41594359036
1.37425118295
1.3327731793
1.29149476545
1.250400687
1.20947138642
1.16867556148
1.12796769614
1.0873607061
1.04687760313
1.00657301001
0.966531932176
0.926823196649
0.887526776101
0.848740453404
0.810576027575
0.773135914833
0.736598408831
0.701151183489
5.56976961068
5.46304447855
5.35805386805
5.25476983183
5.15316490737
5.05321173356
4.9548832875
4.858152849
4.76299460794
4.6693829361
4.57729272162
4.48669899602
4.39757737677
4.30990391065
4.22365504421
4.13880746536
4.05533841798
3.97322541109
3.89244664992
3.81298015819
3.73480443075
3.65789857316
3.58224244528
3.50781640287
3.43460111105
3.36257762491
3.29172733607
3.22203195827
3.15347444052
3.08603798466
3.01970588875
2.95446254208
2.89029361746
2.82718557317
2.7651240287
2.70409500511
2.64408586236
2.58508384736
2.52707656454
2.47005176553
2.41399645949
2.35889557073
2.30473866556
2.25151401117
2.19919388103
2.14777011542
2.09724338456
2.04758511345
1.99875786518
1.95073799651
1.90350276671
1.85701987884
1.81125473658
1.76616957743
1.72172491647
1.67787166507
1.6345517797
1.59171516456
1.54927841067
1.50719166528
1.46546169063
1.42400870102
1.38273546088
1.34158249024
1.30047794813
1.25935303218
1.21817363795
1.17691588912
1.13552795045
1.09399723501
1.0522793672
1.01032591068
0.968203926273
0.926003607852
0.883833902095
0.841823131146
0.800156257053
0.759021575562
0.718744135029
0.679586972892
5.56976983473
5.46304454469
5.3580535907
5.25476944688
5.1531647443
5.05321177818
4.95488354124
4.85815327424
4.76299521793
4.66938361645
4.57729357902
4.48669991665
4.39757824709
4.30990460519
4.22365544675
4.13880724953
4.05533733236
3.97322305616
3.89244269536
3.81297403548
3.73479544961
3.65788557663
3.58222410091
3.50779155848
3.43456890761
3.36253717202
3.29167740605
3.22197109806
3.15340137735
3.08595187565
3.01960657012
2.95435005367
2.89016810518
2.82704935776
2.7649811539
2.7039499064
2.6439448615
2.58495631163
2.52697403886
2.46998931585
2.41399232611
2.35896979409
2.30491392923
2.25181921975
2.19966004939
2.14843331843
2.09815253774
2.04879397421
2.00031821876
1.95270379198
1.90593114275
1.85997110509
1.81479037395
1.77035062468
1.72660716616
1.68350966225
1.64100153733
1.59902108244
1.55748859286
1.5163465915
1.47553361444
1.43489161205
1.39434955978
1.35396361044
1.31359617479
1.2730277023
1.23220028349
1.19106492262
1.14949708373
1.10742892169
1.0648467188
1.02164735917
0.977797890339
0.933266999549
0.888159593807
0.842612199584
0.796822129903
0.750992513872
0.705552564357
0.66094097252
5.56977029324
5.46304505944
5.3580550082
5.25477138263
5.15316708172
5.05321451579
4.95488664153
4.85815660066
4.76299888031
4.66938741593
4.5772977893
4.48670445463
4.39758291948
4.30990923523
4.22366015438
4.13881161919
4.05534088333
3.97322553234
3.89244386101
3.81297322007
3.73479195811
3.65787790129
3.58221025317
3.50776976117
3.43453848836
3.36249771901
3.29162748242
3.22190830324
3.15332325948
3.08585682976
3.01949335833
2.95421792615
2.89001645827
2.82687789552
2.76479207902
2.70374883771
2.64373882039
2.58475338439
2.52678340534
2.46982488685
2.4138745259
2.35891959362
2.30495450818
2.25198324612
2.19998233073
2.14894534802
2.09890648709
2.04985636118
2.0017551575
1.95458216949
1.9083221964
1.86294966842
1.81843568799
1.77474726772
1.73184240559
1.68966886227
1.64816670385
1.60726745629
1.56689132423
1.52695841506
1.48738489506
1.44805769195
1.40886384739
1.36979022991
1.33062949132
1.29107044299
1.25123945314
1.21116973223
1.17043850314
1.12874444111
1.08611565538
1.04241443792
0.997491552246
0.95117286458
0.903312293982
0.853960508168
0.803346956352
0.751719797914
0.699646244059
0.647731246926
5.56977200046
5.46304602332
5.35805498321
5.25477106647
5.15316720704
5.05321520837
4.95488756668
4.85815748377
4.76299992656
4.66938822678
4.57729895017
4.48670606759
4.39758451637
4.3099105063
4.22366173893
4.13881300083
4.05534087287
3.97322429931
3.89244165515
3.81296880604
3.73478456065
3.65786564129
3.58219105773
3.50774186775
3.43450203634
3.36245247794
3.29157088638
3.22183670949
3.15323349844
3.08574739569
3.01936168685
2.95406186963
2.88983469354
2.82666975207
2.7645587731
2.70349474426
2.64347003985
2.584477509
2.52650876939
2.46956154561
2.41363844351
2.35873470646
2.30484834976
2.25198322738
2.20013437158
2.14927966249
2.09946482484
2.05071571834
2.00299181088
1.95627323849
1.91054654261
1.865795973
1.82199709347
1.77912713484
1.73715279971
1.69602256581
1.65567401249
1.61603561337
1.57702640921
1.53855614709
1.50052724746
1.46283176778
1.42536914318
1.38804817932
1.35070522915
1.31311060182
1.27520468901
1.23692827707
1.1977563677
1.15725798641
1.11572928595
1.07281567614
1.02769748001
0.980329154376
0.930468739053
0.87758569175
0.821851996727
0.764181393615
0.705581814873
0.645533791878
5.56976945159
5.46304324415
5.3580528898
5.25476984195
5.15316703075
5.05321588455
4.95488797736
4.85815809602
4.76300083766
4.66938856799
4.57729998043
4.48670824097
4.39758688526
4.30991266814
4.22366482992
4.13881598628
4.05534219012
3.97322417568
3.8924412594
3.81296617271
3.73477923836
3.65785639521
3.582175277
3.50771669975
3.43446925846
3.36241149078
3.29151724297
3.22176561764
3.1531416985
3.08563390911
3.01922347446
2.95389617433
2.88964063554
2.82644469042
2.76430178655
2.70320950701
2.64316070375
2.58415034519
2.5261692795
2.46921857171
2.41330810974
2.35843818134
2.30461366697
2.25183596357
2.20010913758
2.14941287635
2.0997923346
2.05132855316
2.00398400454
1.9577187709
1.91252264356
1.86838923574
1.82531327076
1.78328900096
1.74229481581
1.70227913628
1.66317701121
1.62492008165
1.58742454791
1.5505959298
1.51433432479
1.47853111312
1.4430829028
1.40788034372
1.37278685451
1.33763665773
1.30231596832
1.26666497079
1.23037952074
1.19308226474
1.15497716394
1.11511101318
1.07170894556
1.02550091016
0.976534884926
0.922834328536
0.864308509371
0.802329799692
0.735176337856
0.658894374991
5.56977007222
5.46304350858
5.35805159245
5.25476882351
5.15316720915
5.05321713026
4.95488832542
4.85815889266
4.76300226324
4.66938874521
4.57730139668
4.48671119174
4.39758986923
4.30991508024
4.22366846928
4.13881950056
4.05534451497
3.97322536496
3.89244154912
3.81296409583
3.73477672796
3.65785369195
3.58217284005
3.50771559847
3.4344612524
3.36238751737
3.29146551029
3.22169300211
3.15304978549
3.08552144326
3.01908798072
2.95373416691
2.88945331342
2.82623222059
2.76406150132
2.70293389394
2.64284433051
2.58379121346
2.52577646997
2.46881004631
2.41289791717
2.35804586981
2.30426146584
2.25155336456
2.19991642009
2.14936236855
2.09993224085
2.05168436479
2.00464004736
1.95882698095
1.91420546824
1.87069101532
1.82829968806
1.78709818432
1.74708646691
1.70820195176
1.67037709114
1.63354135702
1.5976240767
1.56254226964
1.52818518856
1.49444766234
1.46122684415
1.42841961853
1.39591939732
1.36362561346
1.33146241033
1.29931172054
1.26700635293
1.23435414881
1.20126411052
1.1670766269
1.13096596446
1.09243967926
1.04952385889
0.996899397225
0.930701365651
0.857934800408
0.777342836082
0.686734204913
5.56977153729
5.46304797059
5.35806799768
5.25479050715
5.15318514937
5.05322465912
4.95489389696
4.85816230743
4.76300527071
4.66940469158
4.57732296049
4.48673596287
4.39761408494
4.30993522569
4.22367787753
4.13882248658
4.05534733462
3.97322583483
3.89244373492
3.81296515516
3.73477783185
3.6578690668
3.58217979292
3.50770074851
3.43443065534
3.3623390372
3.29140777524
3.22162259486
3.1529625548
3.08541693805
3.01896609485
2.9535967278
2.88928680953
2.82601190966
2.76378613087
2.70261832789
2.64249546306
2.58341721854
2.52537307705
2.46837660395
2.41244262312
2.35757869067
2.3038150738
2.25116897328
2.19962169826
2.14918138693
2.09990541848
2.05186353428
2.00507680564
1.95958757567
1.91546195472
1.87260674797
1.83088044849
1.79040027383
1.75130280362
1.71353582883
1.67700604495
1.64164868996
1.60738961606
1.57413377898
1.54178492311
1.51024863101
1.47942860258
1.44923782752
1.41961236716
1.39051983793
1.36192066773
1.33376304954
1.30592589571
1.27825761844
1.25036482999
1.22128984129
1.1900744299
1.1566105256
1.12264134068
1.07947779904
0.99619141176
0.887388518965
0.819369967882
0.803473208001
5.5697878158
5.46306013065
5.35806905222
5.25479009582
5.15318612005
5.05322824201
4.95489667588
4.85816521838
4.76300686937
4.66940386547
4.57731915262
4.48672615195
4.39760583488
4.30993580743
4.2236907422
4.13884565459
4.05537793439
3.97324937201
3.89244706568
3.81296918909
3.73477791395
3.65785616965
3.58215858805
3.50767941018
3.43440509014
3.36230809168
3.29138271578
3.22159653899
3.15292065515
3.08534087038
3.01884457931
2.95342731146
2.88907272266
2.82576860309
2.76353127367
2.70233455209
2.6421572533
2.58300429412
2.52491293665
2.46788900201
2.4119284164
2.35704489159
2.30327932942
2.25065755675
2.19914763404
2.14877174121
2.0996421428
2.05177495962
2.00522787601
1.96002652232
1.91626741384
1.87398381443
1.83297177181
1.79325294409
1.75505000209
1.71838585602
1.68316448997
1.64930194185
1.61672636512
1.58536366806
1.55512056312
1.52590051227
1.49760289317
1.47015339317
1.44348048095
1.41756288081
1.39237971711
1.36801914262
1.34451626804
1.32220933465
1.30104043825
1.28143495623
1.26324501541
1.25124561802
1.2500032619
1.26535411107
1.26178698748
1.20463535262
1.2131014377
1.21021776108
5.56978156827
5.46305634067
5.35807335206
5.25480036018
5.15319479534
5.05323090076
4.95489511959
4.85816141777
4.76300168046
4.66940684864
4.57732651986
4.4867313824
4.39761227012
4.30994678484
4.2236996041
4.13884210687
4.05537393935
3.97324857615
3.89244897583
3.81296898505
3.73477363428
3.65784620328
3.58215132896
3.50766784233
3.43438899591
3.36228554264
3.29134601157
3.22153788807
3.15284060489
3.0852466559
3.01873402031
2.95330038258
2.88891838392
2.82557748293
2.76329284772
2.70205256256
2.64183473485
2.58264851679
2.52451947679
2.46745160077
2.41144699296
2.35652388136
2.30273858832
2.25011814808
2.19863210435
2.14829529449
2.0992323096
2.05147471647
2.00507030142
1.96011982234
1.91661059417
1.87461604445
1.83410582567
1.79503010722
1.75752175021
1.72164751751
1.68738966665
1.65466107415
1.62339077153
1.59349160628
1.56486745259
1.53743117296
1.51109627058
1.48582982518
1.46168711194
1.43887287598
1.41785989555
1.39948825573
1.38525092884
1.37727372748
1.37839789023
1.39182233038
1.42225319515
1.47775605059
1.57306529373
1.72437751794
1.93869988112
2.19645970557
2.3886554189
2.04000879558
0.765915438669
0.738345745999
0.710664794692
0.682910764862
0.65511471247
0.627306195589
0.599520009803
0.571789471197
0.5441460535
0.516625108781
0.489261477583
0.462089729495
0.435145525758
0.408464733333
0.382085994008
0.356049424081
0.33039811022
0.305141346646
0.280355903169
0.256164211797
0.232508257356
0.20935506802
0.18688475784
0.165160481144
0.14417248495
0.123959461664
0.104577727155
0.0860693487525
0.0684673188203
0.0517998108754
0.0360892960137
0.0213518796952
0.00759683016511
-0.00517389186102
-0.0169651387365
-0.0277870673376
-0.0376614418635
-0.0466122280722
-0.0546699775218
-0.0618711317657
-0.0682567365798
-0.0738715458298
-0.0787637691603
-0.0829839025487
-0.0865842989019
-0.0896185615151
-0.0921411394013
-0.0942064456938
-0.0958688859704
-0.0971820520123
-0.0981955655653
-0.0989593014958
-0.0995164822643
-0.0999087303023
-0.100175458361
-0.100352015597
-0.10046708824
-0.100547191828
-0.100617852735
-0.100697685846
-0.100792987309
-0.100913433585
-0.10108417287
-0.101323968018
-0.101613271282
-0.101938343433
-0.102343062031
-0.102856312384
-0.103487703289
-0.104181340042
-0.104822483564
-0.105509944225
-0.106386799597
-0.107368848616
-0.108295835327
-0.109085127768
-0.109881895471
-0.110808664072
-0.11176027549
-0.112587803871
-0.113495227629
-0.114350287782
-0.115326784473
-0.116525846306
-0.118415092935
-0.120552410677
-0.121673139844
-0.123439698333
-0.125349969269
-0.126240790597
-0.127174832762
-0.128802598924
-0.132502395384
-0.139477361087
-0.142998526686
-0.145473480514
-0.147373965455
-0.146648542166
-0.145824901595
-0.145263251488
-0.144581209898
-0.143144804076
-0.140570398609
-0.139096951654
-0.141271066351
-0.136157746468
-0.130873572761
-0.12295592046
-0.114032877984
-0.106822515722
-0.100480489861
-0.0945289973993
-0.0889880110232
-0.0838459805313
-0.0788711205095
-0.0739960575176
-0.0693561228527
-0.0649341980105
-0.0609089902927
-0.0568766109352
-0.0522940575359
-0.0479515231565
-0.0439650897173
-0.0407849559424
-0.0382784447783
-0.0353181583779
-0.0349166500956
-0.0149674049497
-3.53038537902e-05
-0.0164682707965
-0.0284462065882
-0.0195502299232
-0.00477740874601
-0.0108276416376