/*--------------------------------*- C++ -*----------------------------------*\
  =========                 |
  \\      /  F ield         | OpenFOAM: The Open Source CFD Toolbox
   \\    /   O peration     | Website:  https://openfoam.org
    \\  /    A nd           | Version:  9
     \\/     M anipulation  |
\*---------------------------------------------------------------------------*/
FoamFile
{
    format      ascii;
    class       volScalarField;
    location    "120";
    object      p_rgh;
}
// * * * * * * * * * * * * * * * * * * * * * * * * * * * * * * * * * * * * * //

dimensions      [1 -1 -2 0 0 0 0];

internalField   nonuniform List<scalar> 
12230
(
34.4996450629
32.782766304
31.7226215624
30.002656679
28.8228800015
27.3437805625
26.205824661
24.9317296333
23.8679264182
22.7562735725
21.7781463335
20.7982800887
19.9078785502
19.0381577445
18.2325757378
17.4571379096
16.731008605
16.0377038065
15.3846319064
14.7637429105
14.1771098432
13.6205647867
13.093963404
12.5948577127
12.1223024733
11.6746056443
11.2506151182
10.848991617
10.4685988505
10.1082926536
9.76702302754
9.44377903044
9.13761105863
8.84761594356
8.57293966431
8.31277279503
8.06634925345
7.83294299217
7.61186635978
7.40246784096
7.20413065426
7.01627056975
6.83833408392
6.66979698766
6.51016275283
6.35896108701
6.21574654296
6.08009720479
5.95161343754
5.82991671868
34.5018959094
32.7861885482
31.7237086678
30.0033229287
28.8225342573
27.3439908325
26.2055676245
24.9318912233
23.8677775981
22.7563827334
21.7780563905
20.7983475995
19.9078262581
19.038197219
18.2325462396
17.4571594547
16.7309929539
16.037714827
15.3846241478
14.7637481208
14.1771063236
13.6205670244
13.0939619499
12.5948585665
12.1223019245
11.6746059
11.2506149117
10.848991669
10.4685987796
10.1082926456
9.76702277152
9.44377873194
9.13761077207
8.84761568726
8.57293938667
8.31277265891
8.0663491141
7.83294285017
7.61186620599
7.40246776909
7.20413061283
7.01627053778
6.8383340562
6.66979696409
6.51016273
6.35896106493
6.21574652095
6.08009718574
5.95161341776
5.82991669561
34.509245262
32.7900056594
31.7257041293
30.0033200016
28.8226788826
27.3437695861
26.2056213163
24.9317978604
23.8678305169
22.7563287735
21.7780947541
20.7983140066
19.907852065
19.0381764466
18.2325622211
17.4571468288
16.7310024106
16.0377075068
15.3846294865
14.7637441316
14.1771092017
13.6205649704
13.0939633638
12.5948575784
12.1223024144
11.6746051123
11.2506148306
10.8489912279
10.4685986776
10.1082924616
9.76702286529
9.4437787809
9.1376108113
8.84761575561
8.57293941953
8.31277258913
8.06634902695
7.83294272009
7.61186606513
7.402467675
7.20413057271
7.01627052266
6.83833405891
6.66979699122
6.51016277993
6.35896113881
6.21574661252
6.08009729802
5.95161354428
5.82991682331
34.5221917189
32.7931564489
31.726977052
30.0031900835
28.8228866682
27.3435221811
26.2057227877
24.9316851875
23.867905587
22.7562608724
21.7781454463
20.7982719353
19.9078839276
19.0381510603
18.2325817068
17.4571317169
16.7310137377
16.0376988999
15.384635821
14.7637394294
14.1771125904
13.6205625211
13.093965051
12.5948564363
12.1223034631
11.6746046195
11.2506151486
10.8489910136
10.4685986716
10.1082921659
9.76702292518
9.44377878894
9.13761089741
8.84761573896
8.57293933565
8.31277276035
8.06634921012
7.83294279699
7.61186604736
7.40246763618
7.20413055278
7.0162705114
6.83833404437
6.66979698424
6.51016277122
6.35896113856
6.21574661323
6.08009731053
5.9516135753
5.82991685199
34.539937697
32.7936085702
31.7269735497
30.0029627322
28.8230578721
27.3433784153
26.2057927189
24.9316151617
23.8679547048
22.7562177694
21.7781783665
20.7982449554
19.9079044514
19.0381343777
18.2325944349
17.4571215879
16.7310215477
16.0376930361
15.3846404197
14.7637359948
14.1771150809
13.6205605797
13.0939662602
12.5948552731
12.1223038562
11.6746041925
11.2506154071
10.8489908356
10.4685988007
10.1082921021
9.76702295096
9.44377869173
9.13761082098
8.84761588898
8.57293931069
8.31277266146
8.06634915596
7.83294278138
7.6118660753
7.40246764967
7.20413056085
7.01627052882
6.83833405115
6.66979699572
6.51016278666
6.35896116717
6.21574664349
6.08009735285
5.95161365724
5.82991694456
34.5590763482
32.792179673
31.7264050284
30.0025446923
28.8231999509
27.3432891824
26.2058409767
24.9315662614
23.867989715
22.7561871908
21.7782016953
20.7982255357
19.9079195562
19.0381222164
18.2326042699
17.4571139366
16.7310274799
16.0376883029
15.3846439397
14.7637332371
14.1771171604
13.6205590714
13.0939674135
12.5948544917
12.1223044138
11.6746038661
11.2506156454
10.848990674
10.4685989307
10.1082919889
9.76702313866
9.44377881695
9.13761095261
8.84761593729
8.57293928742
8.31277256263
8.06634909873
7.83294272038
7.61186605542
7.40246762365
7.20413053464
7.01627052212
6.8383340464
6.66979700686
6.51016280189
6.35896121134
6.21574670135
6.08009742276
5.95161377892
5.82991711013
34.5764940702
32.7919734785
31.7260293845
30.0020630033
28.8233005844
27.3432224173
26.2058802631
24.9315271919
23.8680183612
22.7561624695
21.778220723
20.7982096599
19.907931912
19.0381121181
18.2326120527
17.4571075919
16.731032371
16.0376844413
15.3846469184
14.763730966
14.1771188985
13.6205577858
13.0939683329
12.5948537804
12.1223048554
11.6746036101
11.2506159584
10.8489906909
10.468599209
10.1082921331
9.76702339164
9.44377888639
9.13761109382
8.84761616359
8.57293941034
8.31277259544
8.06634917034
7.8329427128
7.61186624505
7.40246782107
7.20413074086
7.01627075371
6.83833428174
6.66979726795
6.51016306821
6.35896151679
6.21574704627
6.08009780256
5.95161422826
5.82991765831
34.5920153498
32.7941160996
31.7260505354
30.0016954564
28.8233762089
27.3431744785
26.2059131887
24.9314964827
23.8680412775
22.7561429172
21.7782358423
20.7981971453
19.9079416865
19.0381041897
18.2326182544
17.4571027343
16.7310363107
16.0376815459
15.3846492759
14.7637291926
14.1771203682
13.6205569654
13.0939693062
12.5948535436
12.1223055691
11.6746037318
11.2506165541
10.8489909913
10.4685997023
10.1082925427
9.767023906
9.44377932807
9.13761165356
8.84761683004
8.57293992582
8.31277301899
8.06634963191
7.83294325902
7.61186681016
7.40246841058
7.20413132124
7.01627135971
6.83833488257
6.6697978951
6.51016369597
6.35896216741
6.21574773614
6.08009854431
5.95161503295
5.82991859717
34.6067943373
32.7972970831
31.7263378019
30.0014848656
28.8234309257
27.3431420561
26.205939308
24.9314738706
23.8680585885
22.7561283722
21.7782471764
20.7981878769
19.907948948
19.0380985316
18.2326230248
17.4570994056
16.7310394509
16.0376797999
15.3846514422
14.7637285219
14.1771220463
13.6205569805
13.093970662
12.5948540519
12.122306805
11.6746045508
11.2506177635
10.8489920545
10.4686009169
10.1082936996
9.76702510037
9.44378047714
9.13761291083
8.84761822838
8.57294110742
8.3127740638
8.0663507026
7.83294446647
7.61186792773
7.40246951696
7.20413237249
7.01627239263
6.83833586352
6.66979885612
6.51016461146
6.3589630416
6.21574859463
6.08009944962
5.95161598001
5.82991970217
34.6214017989
32.8000245239
31.7267937007
30.0013110766
28.8234677525
27.3431193171
26.2059580506
24.931458186
23.8680711496
22.7561183805
21.7782554553
20.7981818433
19.9079545543
19.0380952301
18.232627054
17.4570979976
16.7310425928
16.0376797119
15.3846541032
14.7637293661
14.1771245036
13.6205583425
13.0939729363
12.5948557418
12.1223089563
11.6746063539
11.2506197689
10.8489938893
10.4686027565
10.108295398
9.76702706018
9.44378562436
9.13761801634
8.84762331337
8.57294574038
8.31277828515
8.06635474467
7.83294837865
7.61187166597
7.40247304352
7.20413567726
7.01627550612
6.83833873893
6.66980154912
6.51016711669
6.35896535499
6.2157507233
6.08010151555
5.95161798998
5.82992174962
34.6359174057
32.8016159031
31.7273867071
30.0010879498
28.8235004567
27.3431097933
26.2059708483
24.9314492358
23.8680796797
22.7561130257
21.7782615906
20.7981794278
19.9079595006
19.038094986
18.232631383
17.45709915
16.7310464722
16.0376816116
15.3846575233
14.7637315381
14.1771274254
13.6205645704
13.0939792616
12.5948611823
12.1223140944
11.674610622
11.2506236057
10.8489969697
10.4686052139
10.1082971336
9.76702777993
9.44378600141
9.13761806812
8.84762312971
8.57294487922
8.31277674639
8.06635293678
7.83294636063
7.61186943251
7.40247057855
7.20413293858
7.01627254664
6.83833556808
6.66979821619
6.51016361911
6.35896168016
6.21574686612
6.08009763144
5.95161414381
5.82991803313
34.6503843753
32.8017977911
31.7280314829
30.0008948289
28.8235166705
27.3431153591
26.2059785508
24.9314478919
23.8680852562
22.7561136287
21.7782667834
20.7981816854
19.9079643691
19.0380978737
18.2326355116
17.4571064793
16.7310536917
16.0376869624
15.3846621138
14.7637343987
14.1771293263
13.6205649175
13.0939787811
12.5948596144
12.1223117899
11.6746074667
11.2506198045
10.8489926131
10.4686003636
10.108291792
9.76702275447
9.44378418059
9.13761645684
8.8476217228
8.57294316686
8.3127746247
8.06635108742
7.83294468127
7.61186784722
7.40246903289
7.20413141358
7.01627108256
6.83833413124
6.66979685475
6.51016227368
6.35896030451
6.21574546293
6.08009629015
5.95161293964
5.8299170632
34.6645658513
32.8004188575
31.7285679964
30.0008499043
28.8235166706
27.3431332987
26.205983744
24.9314548803
23.8680897513
22.7561262741
21.7782765229
20.7981914975
19.9079704169
19.0381028639
18.2326369198
17.4571066381
16.7310513291
16.0376836739
15.3846571928
14.7637287868
14.177122797
13.6205624894
13.0939761696
12.5948570441
12.1223091938
11.6746048979
11.2506172893
10.848990254
10.4685981259
10.1082896567
9.76702048637
9.44378217293
9.13761448311
8.84761982318
8.57294113189
8.31277204124
8.06634867323
7.83294224755
7.61186536879
7.40246651189
7.20412891199
7.01626865768
6.83833173475
6.66979448601
6.5101598749
6.35895789855
6.21574306538
6.08009396423
5.95161094969
5.82991586398
34.6769723481
32.7975872441
31.7288550693
30.0009324929
28.8235213706
27.3431624627
26.206002906
24.9314686759
23.8680995329
22.7561310035
21.7782769297
20.7981896234
19.9079650797
19.0380968093
18.2326285064
17.4571036959
16.7310473391
16.0376804405
15.3846533972
14.7637256861
14.1771195603
13.6205598027
13.0939732948
12.5948542336
12.1223058684
11.6746010321
11.250613394
10.8489867275
10.4685948742
10.1082860253
9.76701581457
9.4437778531
9.1376139064
8.84761852494
8.57294213404
8.3127841269
8.06636339657
7.8329554271
7.61187735189
7.40247794082
7.20414046952
7.01628009588
6.83834284803
6.66980501776
6.51016946194
6.35896770543
6.2157537552
6.08010517024
5.9516232911
5.82992920594
34.6860114982
32.7940654194
31.7289688375
30.0010224441
28.8235511105
27.3431473619
26.2060194274
24.9314426187
23.8681020929
22.7561205577
21.778282982
20.7981835479
19.9079685798
19.0380937477
18.2326306216
17.4571025171
16.7310487777
16.0376803047
15.3846545018
14.7637261478
14.1771205965
13.6205606797
13.0939743869
12.5948551389
12.1223065462
11.6746011331
11.2506137299
10.848987129
10.4685953591
10.1082862037
9.76701489473
9.44377656284
9.13761192876
8.84761810098
8.57294436463
8.31278398402
8.06636098407
7.83295298631
7.61187489665
7.40247533595
7.20413758051
7.01627694978
6.83833948265
6.66980146213
6.51016598453
6.35896420802
6.21574989378
6.08010105182
5.9516190012
5.82992522703
5.7152821487
5.60530934622
5.49712405471
5.39069722576
5.28600028104
5.18300510888
5.08168404447
4.98200987055
4.88395582281
4.78749558107
4.69260323603
4.59925332823
4.5074208091
4.41708108083
4.32820992751
4.24078353318
4.15477848515
4.07017176325
3.98694078735
3.90506325049
3.82451724992
3.74528144633
3.66733461416
3.59065574698
3.51522434545
3.44102030416
3.36802372099
3.29621488726
3.22557426815
3.15608277574
3.08772119446
3.02047064904
2.95431233505
2.88922753489
2.82519757745
2.76220384079
2.70022769699
2.63925052271
2.5792536728
2.52021848675
2.46212626878
2.4049582991
2.34869596411
2.29332067287
2.2388139327
2.18515619306
2.13233132172
2.08032283916
2.02910711247
1.97866485787
1.92898826782
1.88006500767
1.83187557681
1.78440409018
1.73763996033
1.691573073
1.6461939394
1.60149480147
1.55746980242
1.51411483201
1.47142754637
1.42940743308
1.38805577368
1.34737551239
1.30737116207
1.26804876922
1.22941576893
1.19148028084
1.15425070485
1.11773765265
1.08195060581
1.04689895269
1.0125927074
0.979040652923
0.946250720535
0.914229547057
0.882981753433
0.852508609077
0.822819173999
0.793920424981
5.71528211614
5.60530930864
5.49712400912
5.39069717439
5.28600022064
5.18300504613
5.08168397557
4.98200978838
4.88395571335
4.78749547121
4.69260308136
4.59925309887
4.50742047931
4.41708063371
4.32820933449
4.24078275829
4.1547774818
4.0701705179
3.98693922765
3.90506136314
3.82451503187
3.74527890172
3.66733191007
3.59065305028
3.51522171733
3.44101797569
3.36802207107
3.29621442528
3.22557520314
3.15608629039
3.08772795876
3.02048169255
2.9543288761
2.88925098083
2.82522950206
2.76224602334
2.70028206794
2.63931920126
2.57933884765
2.52032246666
2.46225127313
2.40510665704
2.34886964642
2.29352205112
2.23904281059
2.18541478575
2.13262192767
2.08064370266
2.02945808931
1.97904641331
1.92939091048
1.88048204917
1.83230715927
1.78484269753
1.73806977873
1.69197799343
1.6465580683
1.60179948426
1.55769248503
1.5142296152
1.47140599806
1.42921889859
1.38766756222
1.34675314112
1.30647871206
1.2668503271
1.22787741075
1.18956693315
1.15192024263
1.11497443052
1.07873111844
1.04319737109
1.00839602353
0.974342629172
0.941051419849
0.908536789815
0.876810821818
0.845881391704
0.815768087883
0.786487968129
5.7152822278
5.60530940524
5.49712408904
5.39069722653
5.28600025276
5.18300505786
5.08168396242
4.98200972151
4.88395555071
4.78749519113
4.69260264833
4.59925247922
4.50741963191
4.41707950209
4.32820783238
4.24078086061
4.15477510961
4.07016766851
3.98693583848
3.90505741788
3.82451060181
3.74527398824
3.66732685272
3.59064846783
3.51521793168
3.44101535068
3.36802142736
3.29621701907
3.22558248391
3.15609973678
3.08774957009
3.02051379904
2.95437412451
2.88931236624
2.82531033818
2.76234997189
2.70041303184
2.63948125734
2.57953611484
2.52055897742
2.4625307978
2.40543252755
2.34924430922
2.29394718013
2.23951948867
2.18594194649
2.13319644561
2.08125878879
2.03010449873
1.97971970265
1.93007740127
1.88114201368
1.83291178597
1.78538342821
1.73852353045
1.69229974453
1.64669688949
1.60170663472
1.55731765413
1.51351604055
1.47029293158
1.42764288248
1.38556247748
1.34405079289
1.30311003124
1.26274730557
1.22297452443
1.18380206071
1.14523489157
1.10731704901
1.07005963117
1.03347903442
0.997610244187
0.96248065987
0.92811651373
0.894543009054
0.861781633643
0.829847875141
0.798776962172
0.768604472934
5.71528222076
5.60530938216
5.49712404494
5.39069715494
5.28600016315
5.18300497913
5.08168388782
4.98200961505
4.88395545249
4.78749503396
4.69260239113
4.59925205656
4.507418984
4.41707853756
4.3282064086
4.24077884751
4.1547723334
4.07016410982
3.9869314674
3.90505205714
3.82450422876
3.74526653367
3.66731806697
3.59063889496
3.51520835231
3.44100595149
3.36801249012
3.29620936739
3.2255776721
3.15609937888
3.08775568942
3.02052894408
2.9544013563
2.88935531495
2.82537321983
2.76243758583
2.70053077926
2.63963516649
2.57973273405
2.52080511708
2.46283377626
2.40579959775
2.34968359856
2.2944640528
2.24012225555
2.18663757927
2.13398786881
2.08214910605
2.03109503867
1.98080290395
1.9312521916
1.88241032698
1.83424178741
1.78672816057
1.73986846404
1.69363837002
1.64799049606
1.60289356963
1.55833530051
1.51430063098
1.47076915571
1.42772856675
1.38517046402
1.3430891094
1.30147767308
1.26034047051
1.21968970515
1.17953532306
1.13987884282
1.10076118773
1.06219136069
1.02418813962
0.986801820242
0.950078656022
0.914069069401
0.878829448658
0.844414045999
0.810867129523
0.778263177042
0.746675439516
5.71528226253
5.60530941808
5.49712406109
5.39069712597
5.28600013245
5.18300502696
5.0816840545
4.98200981696
4.88395558206
4.7874950821
4.69260234392
4.59925185248
4.50741849289
4.41707760902
4.32820496469
4.24077676016
4.154769498
4.07016028452
3.98692651964
3.90504574313
3.82449618972
3.74525662562
3.66730600109
3.59062411421
3.51519124261
3.44098734553
3.36799258291
3.29618814876
3.2255558694
3.15607838471
3.08773739237
3.0205156729
2.95439620538
2.88936218747
2.82539682556
2.76248350778
2.70060559033
2.63974654458
2.57988983006
2.52101783582
2.46311304139
2.40615697683
2.3501333021
2.29501828674
2.24079124214
2.18743779234
2.13493620089
2.08325930101
2.03237720873
1.98226475039
1.9328973811
1.88424255628
1.836284689
1.78897439447
1.7422468204
1.69611120631
1.65056842623
1.60556265005
1.56103533809
1.5169571907
1.47330399772
1.43005053655
1.3871746218
1.34466367353
1.30249779271
1.26065168129
1.21912299272
1.17792221209
1.1370602565
1.09660664242
1.05660140675
1.01706004416
0.978018285459
0.93951655969
0.901607549946
0.86435727393
0.827840115246
0.79212659476
0.757337784977
0.723608773964
5.71528236166
5.60530951013
5.49712407611
5.39069706602
5.28600007823
5.18300504414
5.08168415342
4.98200995985
4.88395583465
4.78749538081
4.69260266252
4.59925208355
4.50741852649
4.4170773327
4.3282042395
4.24077536611
4.15476721901
4.07015678269
3.98692155414
3.90503901184
3.82448718308
3.74524475849
3.66729089922
3.59060524304
3.5151678629
3.44095937598
3.36796061816
3.29615226587
3.22551592028
3.15603469883
3.0876912203
3.02046880764
2.95435129239
2.88932294699
2.82536801043
2.76247103521
2.70061683078
2.63979003492
2.57997605798
2.52115931216
2.46332387766
2.40645251638
2.35053242245
2.2955429922
2.24145717287
2.1882667274
2.13595895118
2.08450358706
2.03386589619
1.98402152788
1.93494429537
1.88660115561
1.83896279367
1.79199099777
1.74565529958
1.69989631455
1.65463163957
1.6098787546
1.56563265601
1.52180665253
1.4783359504
1.4351764508
1.39228882694
1.34963503402
1.30719994191
1.26496798577
1.22291930215
1.18102228837
1.13923114514
1.09755848451
1.05602701791
1.01469110119
0.973635461877
0.932928654443
0.892650383604
0.852898168535
0.813783548931
0.775408685778
0.737951621818
0.701599784042
5.71528284701
5.60530993974
5.49712434278
5.39069725058
5.28600035604
5.18300546753
5.08168474498
4.98201066599
4.88395662877
4.78749622688
4.69260358393
4.59925297895
4.50741928907
4.41707783305
4.32820434079
4.24077479573
4.15476574815
4.07015402535
3.98691716162
3.90503252086
3.82447794888
3.74523191255
3.66727364355
3.5905828794
3.51513967737
3.44092449427
3.36791813367
3.2961017312
3.22545766457
3.1559685756
3.08761721167
3.02038741958
2.95426433896
2.88923390299
2.8252812152
2.76239178817
2.70055248246
2.63975005279
2.57997162036
2.52120446052
2.46343511472
2.40664804643
2.35083236937
2.29597590476
2.24205048814
2.1890475282
2.13696727116
2.08578072451
2.03545004383
1.98595118057
1.93726099181
1.88934679368
1.84217360484
1.79570328527
1.74989597765
1.70470222803
1.66006363239
1.61592974142
1.57221679715
1.52887460478
1.48590958873
1.44324163225
1.40077317281
1.35844441005
1.31618318657
1.27392038992
1.23162160943
1.18926266869
1.14679144984
1.10419506472
1.06142882919
1.01844404493
0.975307494682
0.932109099811
0.888957539006
0.845980870701
0.803363797651
0.761294360365
0.720097356387
0.680035576245
5.71528373053
5.60531066142
5.49712471413
5.39069750455
5.28600081913
5.18300612296
5.08168559154
4.98201166414
4.88395778976
4.7874974351
4.69260494518
4.59925437913
4.50742061493
4.41707895981
4.32820515352
4.24077496966
4.15476503393
4.07015202591
3.9869135491
3.90502672976
3.82446929141
3.74521923469
3.66725561511
3.5905583506
3.51510779103
3.44088436153
3.36786852778
3.29604120055
3.22538493693
3.15588280732
3.0875182386
3.02027528087
2.95413917952
2.88909804261
2.82513869608
2.76224704453
2.70041183431
2.63962286609
2.5798694385
2.5211423482
2.4634313111
2.40672259089
2.35100794466
2.29628141477
2.24251694729
2.18971101103
2.13787669299
2.08698984277
2.03701064597
1.98791721275
1.9396895934
1.89229823449
1.84570944606
1.7998845261
1.75477841088
1.71034039914
1.66651355448
1.62323581476
1.58042712586
1.538029669
1.4959816421
1.4541246649
1.41238738545
1.37082563667
1.32930151241
1.28759515258
1.245648341
1.20341178242
1.16076065757
1.1176268251
1.07399624806
1.02976555432
0.984901512978
0.939372538987
0.893283271264
0.846769972592
0.800029696716
0.753265317477
0.706905797037
0.661389579643
5.71528489155
5.60531185287
5.4971267858
5.39070007576
5.28600377709
5.18300947037
5.08168929458
4.98201559024
4.88396205215
4.78750183777
4.69260976409
4.59925953309
4.50742591175
4.41708422343
4.32821050377
4.24077999054
4.1547692435
4.07015516662
3.98691538306
3.90502658413
3.82446646841
3.74521222375
3.66724242474
3.59053720075
3.51507800649
3.44084552814
3.36781920611
3.29597898805
3.22530737981
3.15578829906
3.08740553996
3.02014364108
2.95398799432
2.88892701549
2.82495002955
2.76204635735
2.70020614824
2.63942026793
2.57967910873
2.52097819876
2.46331376709
2.40667262471
2.3510487371
2.29644563543
2.24283940513
2.19022320086
2.13863078749
2.08805236078
2.03844770267
1.98979569978
1.94208074787
1.89527689034
1.84935484514
1.80428124769
1.76001372344
1.71649966786
1.67367878607
1.63148225079
1.58982991711
1.54864155096
1.50783297991
1.46729080146
1.42690172912
1.38665231217
1.34633488457
1.30563794895
1.2646875661
1.22351664779
1.18170213188
1.13894240417
1.09526524207
1.05053268762
1.00459522548
0.957278450026
0.90843601206
0.858118315743
0.806554551034
0.753992622013
0.700999489355
0.648179858317
5.71528689324
5.60531307807
5.49712699014
5.39069995855
5.28600407202
5.18301030517
5.08169033552
4.98201656489
4.8839631667
4.78750269525
4.6926109511
4.59926115304
4.50742749766
4.41708546663
4.32821204453
4.24078131357
4.15476916009
4.07015384733
3.98691307768
3.90502205818
3.82445894665
3.74519982769
3.66722308177
3.59050914878
3.5150413854
3.44080010791
3.36776242131
3.29590719671
3.22521741882
3.15567865629
3.0872736529
3.01998736254
2.95380600163
2.8887186388
2.82471648542
2.76179202144
2.69993712157
2.63914414357
2.57940422199
2.52071460565
2.46307743287
2.40648748711
2.3509423311
2.29644537345
2.24299120776
2.19055728305
2.13918889951
2.08891149989
2.03968416508
1.99148657948
1.94430491383
1.89812302478
1.85291609133
1.80866096735
1.76532398219
1.72285324845
1.68118598383
1.64025030915
1.59996491533
1.56023920808
1.52097526908
1.4820648256
1.44340698426
1.40491023159
1.36641060241
1.32767809766
1.28865280065
1.24927520044
1.20902001093
1.16745597616
1.12487890317
1.08093395878
1.03480118681
0.986434772955
0.935592488492
0.881743527765
0.825059615702
0.766454236487
0.706935072249
0.645982407487
5.71528347824
5.60530942947
5.49712402582
5.39069786416
5.28600302811
5.18301011839
5.08168988866
4.98201632716
4.88396323622
4.78750220416
4.69261115879
4.59926251425
4.5074290651
4.41708683824
4.32821435647
4.24078353146
4.15476972033
4.07015297733
3.98691194464
3.90501869652
3.82445290367
3.74518986836
3.66720659478
3.59048328158
3.51500791574
3.44075843715
3.36770810339
3.29583543695
3.22512496641
3.15556453276
3.08713481691
3.01982105656
2.95361134468
2.88849298705
2.82445891492
2.76150620436
2.69962720811
2.63881640499
2.57906416109
2.52037106636
2.46274653812
2.40619042565
2.35070715041
2.29629764872
2.24296554862
2.19069010421
2.13951604442
2.08952400967
2.04067603351
1.99293181013
1.94628073216
1.90071602268
1.856232021
1.81282260076
1.77046577794
1.72910960616
1.68868877129
1.64913455927
1.61036282125
1.57227874436
1.53478209452
1.49776392805
1.46112052263
1.42474220722
1.38849207613
1.35220403965
1.31576400086
1.27901184561
1.2416431403
1.20328025645
1.16412679477
1.12322931683
1.07881267705
1.03160655533
0.981658660856
0.926992189604
0.867516150455
0.804602660031
0.736529606733
0.659342994666
5.71528291527
5.60530854591
5.497121618
5.39069577525
5.28600217266
5.18301036584
5.08168926718
4.98201617306
4.88396371926
4.78750143478
4.6926116059
4.59926444548
4.50743098214
4.41708821292
4.32821703024
4.24078612742
4.15477050718
4.07015237484
3.98691050265
3.90501505464
3.82444946757
3.74518658216
3.66720338647
3.59047975456
3.51499700399
3.44073165512
3.36765415125
3.29576244135
3.22503276925
3.1554518278
3.08699911092
3.01965884902
2.95342382628
2.88827936811
2.82421573952
2.76122779638
2.69930815403
2.63845475131
2.57867045253
2.51996246273
2.46233630178
2.40579803055
2.35035482315
2.29601493426
2.24277276978
2.19063955871
2.13965591294
2.08987977718
2.04133203838
1.99403997949
1.94796350754
1.90301773514
1.8592183365
1.8166307112
1.7752556009
1.73503067204
1.69588718496
1.65775425747
1.62056155399
1.58422500765
1.54863296127
1.51368054647
1.47926456143
1.44528157931
1.41162469491
1.37819303735
1.34491044276
1.31165855618
1.27826990373
1.24455206196
1.21041366235
1.17519486004
1.13806964132
1.09854528828
1.05464761709
1.00105725496
0.933909013215
0.860207670669
0.77869611379
0.687182828159
5.71528310775
5.60531132103
5.49713463187
5.39071376825
5.28601651671
5.18301489022
5.0816921466
4.98201645448
4.88396327019
4.78751404656
4.69262997691
4.59928618876
4.50745232468
4.417105563
4.32822386504
4.24078826525
4.15477413269
4.0701539837
3.98691379856
3.90501696239
3.82444893057
3.74519933133
3.66720800464
3.59046432532
3.51496640692
3.44068341373
3.36759804087
3.29569211443
3.22494556548
3.15534732988
3.08687720899
3.01952039861
2.95325439678
2.88805719695
2.82394037058
2.76091225079
2.69895929255
2.63808070845
2.57826549554
2.51952673939
2.46187879548
2.40532916011
2.34990840407
2.29563058265
2.24247736072
2.19045595479
2.13962655765
2.09005649441
2.04176643039
1.99479829965
1.94921781235
1.90493138687
1.86179719204
1.81993196895
1.77947193759
1.74036471146
1.70251724038
1.66586274559
1.63032721437
1.59581592081
1.56223206241
1.52948084958
1.49746563966
1.4660991098
1.43531732614
1.40508706982
1.37536862047
1.34610989538
1.31718955435
1.28845569338
1.25951456867
1.22940826501
1.19717828687
1.16271629692
1.12776523874
1.08363577078
0.999399147423
0.889661449799
0.820723280386
0.803921842028
5.71529681106
5.60532132399
5.4971352936
5.39071335696
5.28601750569
5.1830182513
5.08169446073
4.98201899435
4.88396486886
4.78751322045
4.69262630382
4.59927801018
4.50744611318
4.41710714354
4.32823642928
4.24080931533
4.15480168945
4.07017450585
3.98691418928
3.9050182565
3.82444822886
3.74518857585
3.66718946302
3.59044560276
3.51494339394
3.44065469348
3.36757156335
3.29566338748
3.2249010404
3.15526870607
3.08675369711
3.01935152884
2.95304281772
2.88781625542
2.82368778756
2.7606309036
2.69862351771
2.63767014814
2.57780749205
2.51903951989
2.46136458876
2.40479525831
2.34937258105
2.29511916623
2.24200395743
2.190048669
2.13936367215
2.08996791975
2.04191749642
1.99523807014
1.95002530747
1.90631050087
1.86389044868
1.82278650008
1.78322094695
1.74521632495
1.70867627276
1.67351647269
1.63966475171
1.60704667002
1.57556859526
1.54513364872
1.51564087259
1.48701564204
1.45918611947
1.43213069678
1.40582819829
1.38036646234
1.35578042531
1.3324078587
1.3101905667
1.28955370556
1.27034915074
1.25735162319
1.25512736107
1.26951224608
1.2649948547
1.20690837437
1.21445480378
1.21066641134
5.7152938033
5.60532078478
5.49714276928
5.39072670331
5.28602917136
5.18302357038
5.08169541733
4.98201745453
4.88396182191
4.78751867956
4.69263634711
4.5992843974
4.50745323447
4.41711979563
4.3282480478
4.2408086183
4.15480045088
4.07017581369
3.98691611754
3.90501805246
3.82444394919
3.74517806083
3.66718206341
3.59043387094
3.5149270338
3.44063188623
3.36753631903
3.29560719175
3.22482323835
3.15517654854
3.08664483001
3.01922501546
2.95288889874
2.88762560398
2.82344790197
2.76034696025
2.69829913697
2.6373141338
2.57741413895
2.51860390662
2.46088524844
2.40427592864
2.34883186683
2.29457969152
2.24148838449
2.18957236835
2.13895585622
2.08966991018
2.04176188444
1.99533242573
1.95036854962
1.90694276651
1.86502456778
1.82456370665
1.78569265102
1.74847772682
1.71290108555
1.67887523226
1.64632893939
1.61517440972
1.58531523686
1.5566639987
1.5291339301
1.50269172732
1.47739228859
1.45344000229
1.43130736473
1.41183451764
1.39651393659
1.38747124651
1.38754723277
1.399940466
1.42935680048
1.483861542
1.57818890715
1.72853525842
1.94190748087
2.19873258621
2.39000873004
2.04045743691
0.765463712836
0.73698288696
0.708375308783
0.679678894945
0.650924433452
0.622141209421
0.593363741619
0.564625064785
0.535956365509
0.507392704426
0.478968625641
0.450718397233
0.422677373782
0.394881110389
0.36736793167
0.340177631376
0.313352968103
0.286902902436
0.260903864827
0.235477942208
0.210566766756
0.186137011817
0.162368428689
0.139323801961
0.116993003508
0.0954143438226
0.0746437503907
0.0547228954155
0.0356843694911
0.017555937434
0.000359654810173
-0.0158887954946
-0.0311805748985
-0.0455141595922
-0.05889485155
-0.0713332546138
-0.0828515942584
-0.0934743010605
-0.103232402454
-0.112162824308
-0.120307105567
-0.127710500928
-0.134421729623
-0.140491805116
-0.145973606849
-0.15092127332
-0.15538979806
-0.159434147835
-0.163109290994
-0.166469401083
-0.16956467743
-0.172445582612
-0.175155930797
-0.177737955083
-0.180231690631
-0.182673123765
-0.185091586784
-0.187514255627
-0.189967326806
-0.192470100127
-0.195029567776
-0.197656114376
-0.20037560658
-0.203207534627
-0.206133089093
-0.209139273948
-0.212270720711
-0.215557070703
-0.219008707915
-0.222570579383
-0.226128687082
-0.229782604275
-0.233676258971
-0.237726294217
-0.241773325471
-0.245735609407
-0.249759217958
-0.2539676042
-0.258256577447
-0.262478191273
-0.266837422758
-0.271203014673
-0.27574978086
-0.28057987818
-0.286161962456
-0.292055052131
-0.296995436488
-0.302646579427
-0.308507448076
-0.313416039786
-0.318436143448
-0.324219383813
-0.332145203359
-0.343417915495
-0.351309772264
-0.358229687555
-0.364651125005
-0.368523887528
-0.37237655389
-0.37657038078
-0.380724121477
-0.384205395856
-0.386631344552
-0.390241900235
-0.397584578805
-0.397725279785
-0.397781736346
-0.395292248107
-0.391872952013
-0.390060757403
-0.388894845127
-0.387884948577
-0.387130006399
-0.386669872579
-0.386141991851
-0.385140423023
-0.383465666007
-0.381308754472
-0.379743197703
-0.378842354392
-0.377458757373
-0.375144765443
-0.370735507998
-0.364995334056
-0.361220380571
-0.361008790873
-0.364836021436
-0.34684171645
-0.323660811868
-0.312640329045
-0.307985829125
-0.306878304403
-0.311195769941
-0.329246107943
-0.342035549545
-0.348282812786