/*--------------------------------*- C++ -*----------------------------------*\
  =========                 |
  \\      /  F ield         | OpenFOAM: The Open Source CFD Toolbox
   \\    /   O peration     | Website:  https://openfoam.org
    \\  /    A nd           | Version:  9
     \\/     M anipulation  |
\*---------------------------------------------------------------------------*/
FoamFile
{
    format      ascii;
    class       surfaceScalarField;
    location    "120";
    object      phi;
}
// * * * * * * * * * * * * * * * * * * * * * * * * * * * * * * * * * * * * * //

dimensions      [0 3 -1 0 0 0 0];

internalField   nonuniform List<scalar> 
24078
(
0.0600204403426
-0.0193965135651
0.0607763573174
-0.000755917013761
0.0607408052528
3.55520235136e-05
0.0607483737676
-7.56855730779e-06
0.0607388786363
9.49508511077e-06
0.0607329517637
5.92682857451e-06
0.0607210620048
1.18897078022e-05
0.0607285096594
-7.44769750346e-06
0.0607223192984
6.19030571738e-06
0.0607262468956
-3.92763663257e-06
0.0607234493414
2.79749702446e-06
0.0607251979433
-1.74863660341e-06
0.0607240922094
1.10567728298e-06
0.0607247157315
-6.23555628147e-07
0.0607243872678
3.28409888829e-07
0.0607245126492
-1.25422583432e-07
0.0607244872941
2.52520000346e-08
0.0607244523913
3.48719238279e-08
0.0607245027546
-5.04168475526e-08
0.0607244421966
6.05429069266e-08
0.0607244934341
-5.12867742829e-08
0.0607244449368
4.84852088176e-08
0.0607244697821
-2.48913814727e-08
0.0607244435852
2.61817284302e-08
0.0607244549319
-1.13955128574e-08
0.0607244414482
1.34625071179e-08
0.0607244428602
-1.46647344982e-09
0.0607244367902
6.043160832e-09
0.0607244341274
2.60253644871e-09
0.0607244293711
4.72471565497e-09
0.060724426808
2.50040069814e-09
0.0607244229077
3.86519005401e-09
0.0607244214166
1.42952819789e-09
0.0607244205799
7.99339669857e-10
0.0607244164794
4.04220993777e-09
0.0607244075389
8.90181423206e-09
0.0607243979834
9.44972076774e-09
0.0607243911685
6.78343032347e-09
0.0607243875448
3.56963593273e-09
0.0607243855365
1.96178314809e-09
0.0607243843348
1.13445194199e-09
0.0607243838099
4.76204804779e-10
0.0607243838041
-4.15260234748e-11
0.0607243842593
-5.00119453375e-10
0.0607243850475
-8.37407644725e-10
0.0607243860461
-1.04940408329e-09
0.0607243870975
-1.10529399943e-09
0.0607243880039
-9.60575156214e-10
0.0607243884744
-5.23863459847e-10
3.32232712469e-10
0.0607243880915
0.0529381097092
-0.03554057148
0.0534336879051
-0.00125149597453
0.053500954379
-3.17152838599e-05
0.0534263926564
6.69923095618e-05
0.0534815486453
-4.56618392357e-05
0.0534289530363
5.85215562676e-05
0.0534568990346
-1.60573215071e-05
0.0534333294713
1.61210114426e-05
0.053450845882
-1.13272138074e-05
0.0534369414181
9.97604718819e-06
0.0534474630908
-7.72531944953e-06
0.0534393796722
6.33409954467e-06
0.0534454490165
-4.96479424647e-06
0.0534409015119
3.92328464864e-06
0.0534442506503
-3.02179297935e-06
0.0534417993998
2.3250303548e-06
0.053443554015
-1.73133342218e-06
0.0534423098321
1.27844408848e-06
0.0534431682768
-9.09913748878e-07
0.0534425786521
6.49897790826e-07
0.0534429702954
-4.43894025277e-07
0.0534427084775
3.10089582602e-07
0.0534428660104
-1.83325414781e-07
0.0534427611533
1.30769700191e-07
0.0534428193619
-7.05504267994e-08
0.0534427803305
5.21235279072e-08
0.0534427959576
-1.81333136032e-08
0.0534427824508
1.90904112477e-08
0.0534427834057
5.20968423598e-10
0.0534427768901
1.07137286841e-08
0.0534427746312
3.61788523421e-09
0.0534427704127
7.51506991057e-09
0.0534427684213
2.33128277493e-09
0.0534427671613
1.47076592893e-09
0.053442761961
8.25114393191e-09
0.0534427539527
1.63228039131e-08
0.0534427452627
1.62819958194e-08
0.0534427392838
1.21131107685e-08
0.0534427358895
6.14583380535e-09
0.0534427339784
3.21695435141e-09
0.0534427322354
1.88640640735e-09
0.0534427313268
7.14736642477e-10
0.053442730742
-1.10762081203e-10
0.053442730579
-9.27401448962e-10
0.0534427306188
-1.51595666598e-09
0.0534427308502
-1.91000798639e-09
0.0534427310984
-2.00312474431e-09
0.0534427312851
-1.76957498223e-09
0.053442731157
-9.85802521549e-10
5.82853714676e-10
0.0534427303998
0.0455746771104
-0.0477900058576
0.0459774624277
-0.00165428271823
0.0460008623698
-5.51167776008e-05
0.0459628618368
0.000104991312521
0.0459902300113
-7.30317382814e-05
0.0459661136868
8.26363495939e-05
0.0459768177254
-2.67632373149e-05
0.0459668132817
2.61240119666e-05
0.0459741362155
-1.86521243971e-05
0.0459681963748
1.59145994034e-05
0.0459726847261
-1.22156643439e-05
0.0459691850216
9.83262914219e-06
0.0459718304476
-7.61214381413e-06
0.0459698190768
5.93337171223e-06
0.0459713157504
-4.5202961252e-06
0.0459702015999
3.4379611987e-06
0.0459710086657
-2.54018148016e-06
0.0459704255377
1.86076997451e-06
0.0459708324031
-1.31853243126e-06
0.045970546792
9.35088374368e-07
0.0459707396936
-6.38408825234e-07
0.0459706065909
4.42777499848e-07
0.0459706861714
-2.64496904755e-07
0.0459706298392
1.86551350542e-07
0.0459706601965
-1.02609339454e-07
0.0459706379231
7.36835671052e-08
0.0459706454038
-2.74669188193e-08
0.0459706374567
2.61941105088e-08
0.0459706371611
-1.11961966775e-09
0.0459706324222
1.45236031452e-08
0.0459706300616
4.07942776425e-09
0.0459706264251
1.01788515256e-08
0.0459706242509
2.73660616134e-09
0.0459706227908
1.94770533132e-09
0.0459706173681
1.2115239919e-08
0.045970610143
2.27054194334e-08
0.0459706037016
2.10656975738e-08
0.0459706000746
1.46134196084e-08
0.0459705980868
6.68821998916e-09
0.0459705970492
3.16876678814e-09
0.0459705956153
1.93342056475e-09
0.0459705947595
5.41883389646e-10
0.0459705939737
-3.90911806649e-10
0.0459705935049
-1.44625586031e-09
0.0459705931292
-2.19553072475e-09
0.0459705929329
-2.72872710928e-09
0.0459705927231
-2.80861611879e-09
0.0459705925238
-2.51505172454e-09
0.04597059214
-1.50311243998e-09
5.71641720921e-10
0.0459705913441
0.0385330772121
-0.0561396221123
0.0388050848759
-0.00192629166838
0.0387951115675
-4.51448670443e-05
0.0387767124633
0.000123389040219
0.038785387935
-8.17087626262e-05
0.0387809213911
8.71015192843e-05
0.0387819722097
-2.78157450106e-05
0.0387802489329
2.78459976883e-05
0.0387814562239
-1.98611930691e-05
0.038780405839
1.6963836887e-05
0.0387811910051
-1.30026215333e-05
0.0387805476461
1.04749462355e-05
0.0387810437371
-8.10995801925e-06
0.0387806449798
6.33099133061e-06
0.0387809516217
-4.82857533267e-06
0.0387807076769
3.6808258766e-06
0.0387808906553
-2.72477834542e-06
0.0387807475925
2.00313234854e-06
0.0387808506813
-1.4231949881e-06
0.0387807730303
1.01240107482e-06
0.0387808285805
-6.95412222295e-07
0.0387807859598
4.85072847715e-07
0.0387808109193
-2.90889251721e-07
0.0387807898272
2.07209330695e-07
0.0387807989466
-1.13259461014e-07
0.0387807880899
8.39774442342e-08
0.0387807897548
-3.07960287347e-08
0.0387807862066
2.90805946982e-08
0.0387807852891
-1.93876824203e-09
0.0387807821681
1.69205238315e-08
0.0387807805366
4.00656442695e-09
0.0387807778222
1.21385572472e-08
0.0387807757666
3.20305190377e-09
0.0387807752541
1.69365548776e-09
0.038780770089
1.5864745374e-08
0.0387807647271
2.74133500888e-08
0.0387807606805
2.36246699287e-08
0.0387807587624
1.56481454993e-08
0.038780757962
6.31137712967e-09
0.0387807574992
2.75056220186e-09
0.0387807563353
1.82527605027e-09
0.0387807555907
4.22313689941e-10
0.0387807547004
-4.46321746197e-10
0.0387807540724
-1.64869066372e-09
0.0387807533654
-2.4213996281e-09
0.0387807528644
-3.09917464179e-09
0.0387807523405
-3.18467250097e-09
0.0387807519028
-2.88172014159e-09
0.0387807513942
-1.81482316565e-09
5.95592606611e-10
0.0387807507107
0.0320618318071
-0.0608635790645
0.0321785147224
-0.00204297574529
0.0321487356939
-1.53671003857e-05
0.0321423529297
0.000129770563304
0.0321379454279
-7.73026620657e-05
0.0321455527685
7.94929414461e-05
0.0321417463497
-2.40108504847e-05
0.0321445980561
2.49931315894e-05
0.0321424046333
-1.76693748361e-05
0.0321441139692
1.52534738815e-05
0.0321427932182
-1.16834871617e-05
0.0321437959949
9.47123963162e-06
0.0321430377019
-7.35321834323e-06
0.0321435947623
5.77291502624e-06
0.032143185852
-4.42114057381e-06
0.0321434750283
3.39068540196e-06
0.0321432700397
-2.52126376928e-06
0.0321434042796
1.86827761281e-06
0.0321433125582
-1.33290375028e-06
0.0321433712296
9.53455295845e-07
0.0321433351104
-6.60623481149e-07
0.0321433543054
4.6562124329e-07
0.0321433412735
-2.79175419445e-07
0.0321433455153
2.02621626612e-07
0.032143339381
-1.0853932236e-07
0.0321433375111
8.53959132883e-08
0.0321433349982
-2.98280216227e-08
0.0321433342484
2.93008918969e-08
0.03214333207
-1.38316467938e-09
0.0321433304307
1.79829964568e-08
0.0321433293171
3.51223081004e-09
0.0321433278055
1.30499174722e-08
0.03214332692
2.57328339392e-09
0.0321433280792
-7.94970556424e-11
0.0321433242222
1.83496032144e-08
0.0321433205882
3.05328267798e-08
0.032143318544
2.43641948835e-08
0.0321433176431
1.58073289559e-08
0.0321433172824
5.69450077222e-09
0.032143316975
2.28212540708e-09
0.0321433158907
1.68797969802e-09
0.0321433152218
3.20080977774e-10
0.0321433142321
-3.80093775879e-10
0.0321433134892
-1.65738032506e-09
0.0321433124949
-2.33404511159e-09
0.0321433117092
-3.12352930516e-09
0.0321433108859
-3.24498833768e-09
0.0321433102553
-3.03804766731e-09
0.032143309642
-2.02382022104e-09
5.03569109888e-10
0.032143309011
0.0262595639462
-0.0623625828255
0.0262156208332
-0.00199903368247
0.0261902140633
1.00385287185e-05
0.0261938020494
0.00012618145599
0.0261818207075
-6.53225870761e-05
0.0261955466033
6.5765929181e-05
0.026189872813
-1.83384388568e-05
0.0261948739481
1.99909515717e-05
0.0261911394312
-1.39363101616e-05
0.0261941579841
1.22339978536e-05
0.0261918410385
-9.36800585208e-06
0.0261936442276
7.66721660948e-06
0.0261922686815
-5.97907895701e-06
0.0261933078402
4.73284422333e-06
0.0261925312609
-3.64589788907e-06
0.0261931008593
2.82022124204e-06
0.0261926872603
-2.10900942487e-06
0.0261929755148
1.57948210788e-06
0.0261927741435
-1.13284360669e-06
0.0261929112685
8.16107864596e-07
0.0261928201036
-5.7069040174e-07
0.0261928769666
4.08557848975e-07
0.0261928400997
-2.43538505627e-07
0.0261928608566
1.81590502695e-07
0.0261928456086
-9.46205778038e-08
0.0261928506763
7.99674806455e-08
0.0261928455116
-2.61272452288e-08
0.0261928470179
2.73735036609e-08
0.0261928440249
5.62430375865e-11
0.026192843721
1.78329515872e-08
0.0261928433878
2.28540070417e-09
0.0261928429875
1.29817922583e-08
0.0261928429426
1.12646547402e-09
0.0261928451016
-2.71821081547e-09
0.0261928421487
1.99288037392e-08
0.0261928399673
3.23141852913e-08
0.0261928394942
2.37735457348e-08
0.0261928391399
1.55524410976e-08
0.0261928391621
4.91427081255e-09
0.0261928390661
1.71458730009e-09
0.0261928380469
1.49676938963e-09
0.0261928374936
1.92483180312e-10
0.0261928364225
-2.4985503485e-10
0.0261928356638
-1.58022237798e-09
0.0261928344709
-2.05799873563e-09
0.0261928334527
-2.8609490495e-09
0.0261928323238
-3.01092646497e-09
0.0261928315796
-3.05181522075e-09
0.0261928308931
-2.18452606861e-09
3.30866964278e-10
0.02619283033
0.0211495137656
-0.0610858712924
0.0209678749468
-0.0018173958141
0.020964283053
1.36293900686e-05
0.0209770942809
0.000113369213942
0.0209622999198
-5.05293728322e-05
0.020978008145
5.00566946194e-05
0.0209720870996
-1.24186423877e-05
0.0209776595652
1.4417542407e-05
0.0209735579584
-9.8360201729e-06
0.0209769345633
8.85656093595e-06
0.0209743446992
-6.77947108414e-06
0.0209763843558
5.626809501e-06
0.0209748190198
-4.41502042268e-06
0.0209760163058
3.5347359361e-06
0.0209751131313
-2.74393791425e-06
0.020975784824
2.14774783895e-06
0.0209752909037
-1.61631697361e-06
0.0209756433777
1.22653113505e-06
0.0209753952345
-8.85908030023e-07
0.0209755672982
6.43864331541e-07
0.020975449641
-4.54179312428e-07
0.0209755257077
3.3233649208e-07
0.0209754766347
-1.95619507042e-07
0.0209755069544
1.51055633704e-07
0.0209754871479
-7.6071377709e-08
0.0209754970422
6.97881839506e-08
0.0209754903354
-2.08170731112e-08
0.0209754937527
2.36275120332e-08
0.0209754907477
1.56284728594e-09
0.0209754916622
1.65719792491e-08
0.0209754916384
7.84146183422e-10
0.0209754919782
1.22922020573e-08
0.020975491917
-2.92023508232e-10
0.0209754941912
-5.34715081373e-09
0.0209754921102
2.06258502444e-08
0.0209754914546
3.26787622846e-08
0.0209754926323
2.18456429303e-08
0.0209754924072
6.16121939456e-09
0.0209754925876
4.02296795675e-09
0.0209754926242
1.12331738392e-09
0.0209754916167
1.32319451227e-09
0.0209754911752
5.49394590722e-11
0.0209754900386
-7.92772756895e-11
0.0209754893191
-1.46012181004e-09
0.0209754880265
-1.69702534553e-09
0.0209754868834
-2.40243668755e-09
0.0209754854696
-2.49734687748e-09
0.0209754846535
-2.94445062006e-09
0.0209754839122
-2.30091704178e-09
8.70915154862e-11
0.0209754834125
0.0167232631117
-0.0574971714521
0.0164493926771
-0.00154352624
0.0164645361483
-1.51501642803e-06
0.016483344642
9.45598019716e-05
0.0164688370208
-3.60227909933e-05
0.0164838797455
3.50130564108e-05
0.0164785736365
-7.11366600095e-06
0.0164837671918
9.22313377665e-06
0.0164799936377
-6.06366171088e-06
0.016483150762
5.69868520314e-06
0.016480729536
-4.35945379631e-06
0.0164826559126
3.69975589317e-06
0.0164811696384
-2.92990850973e-06
0.01648231789
2.38574106315e-06
0.0164814449467
-1.87210058328e-06
0.0164821017871
1.49020164453e-06
0.0164816146555
-1.13030665706e-06
0.0164819684487
8.72316906906e-07
0.0164817169319
-6.35506077306e-07
0.016481892784
4.6786752776e-07
0.0164817704854
-3.32949380788e-07
0.0164818523091
2.50396200736e-07
0.0164818000688
-1.44464404729e-07
0.0164818341824
1.16776591249e-07
0.0164818130645
-5.61455581904e-08
0.016481825607
5.70256870098e-08
0.0164818182856
-1.48315945816e-08
0.0164818227957
1.88696640641e-08
0.0164818200773
2.8322629531e-09
0.0164818218126
1.45865420686e-08
0.016481821555
-4.53529119487e-10
0.016481822276
1.13312126239e-08
0.0164818220072
-1.49620586259e-09
0.0164818240468
-7.62208662933e-09
0.0164818230215
2.02520890105e-08
0.0164818239834
3.15058471339e-08
0.0164818259704
1.91364198154e-08
0.0164818268531
4.44631622654e-09
0.0164818265553
2.9199910126e-09
0.0164818266395
5.78432794113e-10
0.0164818256186
1.17133235672e-09
0.0164818253073
-9.71040836515e-11
0.0164818241435
7.58510648022e-11
0.0164818235064
-1.32780876551e-09
0.0164818221439
-1.30109809501e-09
0.0164818209769
-1.83759882613e-09
0.0164818193266
-1.77499958946e-09
0.0164818183955
-2.65239644733e-09
0.0164818175395
-2.31966229634e-09
-1.56686977415e-10
0.0164818170772
0.0129474617303
-0.0520476076702
0.0126296176256
-0.00122568291491
0.0126494656771
-2.1363915417e-05
0.0126709700552
7.30545918962e-05
0.0126579682481
-2.30219263291e-05
0.0126707790513
2.22014256231e-05
0.0126665130994
-2.84874191695e-06
0.0126708135816
4.92187882605e-06
0.0126677334121
-2.98457853242e-06
0.0126703562724
3.07514528516e-06
0.0126683454354
-2.34971653656e-06
0.012669962781
2.08179831697e-06
0.0126687084131
-1.67659905663e-06
0.0126696872831
1.4061979129e-06
0.0126689375103
-1.1233356863e-06
0.0126695081997
9.18872805253e-07
0.0126690818062
-7.0493680216e-07
0.0126693961931
5.57557387992e-07
0.0126691700337
-4.103759774e-07
0.012669329549
3.08236032352e-07
0.0126692175478
-2.21943568535e-07
0.0126692949141
1.72943725207e-07
0.0126692460061
-9.65751131838e-08
0.012669279467
8.3190741058e-08
0.0126692595067
-3.73124750057e-08
0.0126692728823
4.34836418149e-08
0.0126692656917
-8.91449428299e-09
0.0126692703833
1.3998074908e-08
0.0126692680422
3.77783999961e-09
0.0126692702523
1.22083873036e-08
0.0126692696413
-1.30069249858e-09
0.0126692708525
9.97531292095e-09
0.0126692704665
-2.56705921943e-09
0.0126692718659
-9.15062983934e-09
0.0126692720485
1.86678036346e-08
0.0126692748386
2.85831630668e-08
0.0126692772019
1.55728958718e-08
0.0126692784878
2.90674336439e-09
0.0126692780296
1.91209065576e-09
0.0126692781749
7.36241986318e-11
0.0126692771817
9.97491433696e-10
0.0126692770212
-2.81758370843e-10
0.012669275858
1.90412016255e-10
0.0126692753146
-1.18631074289e-09
0.0126692739
-8.86841213803e-10
0.0126692728137
-1.25763755062e-09
0.0126692710309
-9.46433645316e-10
0.0126692699342
-2.11540792366e-09
0.0126692688629
-2.13764925483e-09
-3.82018935289e-10
0.0126692684176
0.00976609201941
-0.0451510783316
0.00944400659568
-0.000903598197577
0.00945745586041
-3.48139485827e-05
0.00947930051614
5.12091819969e-05
0.00946826198137
-1.19842464355e-05
0.00947827873188
1.21839249299e-05
0.00947525749436
1.71562495312e-07
0.00947845297755
1.72569538651e-06
0.00947621483327
-7.47421612675e-07
0.00947816736067
1.12200235757e-06
0.0094766718983
-8.55255089115e-07
0.00947789143418
8.61708532263e-07
0.00947693981552
-7.25944503942e-07
0.00947769115909
6.54243904028e-07
0.00947711065768
-5.43753231879e-07
0.00947755822808
4.70722346258e-07
0.00947722116816
-3.68810958537e-07
0.00947747329632
3.05098876133e-07
0.00947728979622
-2.27825593195e-07
0.00947742090066
1.77038464073e-07
0.00947732788959
-1.29857977108e-07
0.0094773939114
1.06859908045e-07
0.00947735277584
-5.63933148838e-08
0.00947738241653
5.34578726029e-08
0.00947736543788
-2.1396471831e-08
0.00947737824192
3.05574206028e-08
0.00947737193394
-3.81623416018e-09
0.00947737630809
9.5005359574e-09
0.00947737452444
4.22311439759e-09
0.00947737704736
9.58705197571e-09
0.00947737552065
-1.18931128815e-09
0.00947737787802
7.55556659631e-09
0.00947737721237
-3.33474905724e-09
0.00947737758286
-9.55642252983e-09
0.00947737908215
1.57713618438e-08
0.00947738380152
2.3817386711e-08
0.0094773863024
1.17880869408e-08
0.00947738762057
1.41815268606e-09
0.00947738707858
9.91615666965e-10
0.00947738726672
-3.7064558806e-10
0.00947738627841
8.10915833175e-10
0.00947738628539
-5.11963725805e-10
0.0094773851357
2.43317403911e-10
0.00947738471275
-1.05473887614e-09
0.00947738328806
-5.09857639338e-10
0.00947738235408
-7.2387995678e-10
0.00947738058447
-1.76999110636e-10
0.00947737939543
-1.39278300258e-09
0.00947737807414
-1.73181994543e-09
-5.90160255166e-10
0.0094773776664
0.0071131567109
-0.0371725045703
0.00681722875315
-0.000607670880162
0.00681949099802
-3.70768902679e-05
0.00683946736423
3.12321319358e-05
0.00683107262896
-3.59028679288e-06
0.00683817065307
5.08522055903e-06
0.00683640901336
1.93235488073e-06
0.00683846988367
-3.35809845191e-07
0.00683708363277
6.3793178168e-07
0.00683834506884
-1.3999149914e-07
0.00683738076198
1.0814081839e-07
0.00683818479855
5.71701224657e-08
0.00683755150479
-9.3528906577e-08
0.00683806012111
1.45073479487e-07
0.00683766231694
-1.46786865152e-07
0.00683797455521
1.579574065e-07
0.0068377371032
-1.32210687279e-07
0.00683791795764
1.23950611381e-07
0.00683778477735
-9.55201050709e-08
0.00683788142023
8.03204472516e-08
0.00683781150402
-6.07995678298e-08
0.00683786287953
5.54406932525e-08
0.00683783187543
-2.62784392658e-08
0.00683785571297
2.95533074031e-08
0.00683784288088
-9.56094369728e-09
0.00683785412444
1.92259905533e-08
0.00683784924588
-7.96461898424e-11
0.00683785295906
5.70791812528e-09
0.00683785185746
4.05078216849e-09
0.00683785455295
6.84707456861e-09
0.00683785304779
-1.04522197177e-09
0.00683785553859
5.06648273748e-09
0.0068378544087
-3.59945177765e-09
0.00683785354821
-8.65724808156e-09
0.0068378564078
1.1537509352e-08
0.00683786289241
1.73456555077e-08
0.00683786543567
7.94390917433e-09
0.00683786665673
9.29603219044e-11
0.00683786607419
1.56614948682e-10
0.00683786628589
-7.43188941652e-10
0.00683786539366
5.25425350366e-10
0.00683786545477
-6.88096793714e-10
0.00683786437403
1.94806637991e-10
0.00683786406529
-9.33889990992e-10
0.00683786269929
-2.26348528892e-10
0.00683786199198
-3.11896701268e-10
0.00683786036149
4.18423670655e-10
0.00683785923214
-6.41881936397e-10
0.00683785766465
-1.09537900038e-09
-7.50665190478e-10
0.00683785725168
0.00492244815778
-0.028426015305
0.00467393453526
-0.000359157838007
0.00466529120258
-2.84341895744e-05
0.00468134332114
1.51793932196e-05
0.00467655251826
1.19981226399e-06
0.00468087572161
7.61400125713e-07
0.00468026218551
2.54512152682e-06
0.0046812631225
-1.33732271782e-06
0.00468065631667
1.24392180839e-06
0.00468127479769
-7.58978311063e-07
0.00468080330007
5.7880944757e-07
0.00468121815427
-3.58139054638e-07
0.00468088414285
2.39682807751e-07
0.00468116245084
-1.33737717723e-07
0.00468093917022
7.57301547502e-08
0.00468112069333
-2.40442687346e-08
0.00468098046154
7.24504840504e-09
0.00468109064872
1.3501385839e-08
0.00468100818913
-1.38649499129e-08
0.00468106942571
1.90228236661e-08
0.00468102415257
-1.63192358971e-08
0.00468105913585
2.04273769284e-08
0.00468103904711
-7.01561866905e-09
0.00468105617795
1.23746046348e-08
0.00468104802626
-2.33955898414e-09
0.00468105711556
1.00752127836e-08
0.00468105398913
1.97453503218e-09
0.00468105681979
2.83155167353e-09
0.00468105650018
3.16541560019e-09
0.00468105948415
3.85983553353e-09
0.00468105794554
-8.05755213963e-10
0.0046810608147
2.24819807968e-09
0.00468105882522
-2.95520663023e-09
0.00468105666947
-6.40528951864e-09
0.00468106076234
6.10572900686e-09
0.0046810686363
9.53251907035e-09
0.00468107125299
4.04946636943e-09
0.00468107235749
-1.0615962656e-09
0.0046810716735
-5.16995724997e-10
0.0046810718711
-1.01348247811e-09
0.00468107107089
1.4568263734e-10
0.00468107120831
-8.42512138033e-10
0.0046810702249
2.26324101507e-11
0.00468107001781
-8.16029073975e-10
0.00468106869267
-1.77451571004e-11
0.00468106823272
-4.2529263397e-11
0.0046810668035
7.73085072169e-10
0.00468106583575
3.72997187576e-11
0.00468106413464
-3.41019011363e-10
-7.54422901891e-10
0.00468106361111
0.0031306551269
-0.0191763903426
0.00294220785166
-0.000170711089016
0.00292837765789
-1.46045690572e-05
0.00293888046395
4.67602462465e-06
0.00293750597247
2.57366501715e-06
0.00293938629347
-1.11948061984e-06
0.0029397563849
2.17433141607e-06
0.00293983285931
-1.41431952959e-06
0.00293989377009
1.18226965109e-06
0.00293995436127
-8.20028285327e-07
0.00293990892615
6.23490438143e-07
0.00293998482268
-4.34448331248e-07
0.0029399118873
3.11890209012e-07
0.00293998799393
-2.10301549721e-07
0.00293991891116
1.44117218186e-07
0.00293998378257
-8.93506929983e-08
0.00293993061132
5.97097058195e-08
0.00293997685077
-3.29725840401e-08
0.00293994084835
2.13992879728e-08
0.00293996945222
-9.63152633555e-09
0.00293994725535
5.14744582072e-09
0.00293996646213
1.2000058608e-09
0.00293995679675
1.88613024465e-09
0.00293996723405
1.90292234315e-09
0.002939963653
3.77824841697e-10
0.00293997031237
3.37301342778e-09
0.00293996904229
2.24451829178e-09
0.00293997096341
8.87954283825e-10
0.00293997137248
1.62590263929e-09
0.00293997451411
7.42223530998e-10
0.00293997331338
-8.32425460593e-10
0.00293997496846
6.75505213175e-10
0.00293997110218
-3.70129389955e-10
0.00293996706124
-2.23182027992e-09
0.00293997138229
5.00594106126e-10
0.00293997940499
1.59825949917e-09
0.00293998104699
1.18291123887e-09
0.00293998113325
-1.15907690297e-09
0.00293997977002
-4.39464392028e-10
0.00293997958348
-8.30873319039e-10
0.00293997857935
-1.51255231289e-11
0.00293997844112
-6.52344618597e-10
0.00293997722099
9.17296098105e-11
0.00293997682751
-4.39304753405e-10
0.00293997552388
1.66282677961e-10
0.00293997551281
-1.41309060929e-10
0.00293997475558
4.48856562285e-10
0.00293997455527
1.09967923685e-11
0.00293997339493
-1.10816380788e-10
-9.92342047056e-11
0.0029399722367
0.00168006780188
-0.00964334549725
0.00155724643964
-4.78902016512e-05
0.0015463109015
-3.66954637135e-06
0.00155073008751
2.56333536069e-07
0.00155182125163
1.48192736705e-06
0.00155161224348
-9.10974019733e-07
0.00155277189418
1.01405422999e-06
0.00155207762805
-7.20520240285e-07
0.00155268184031
5.77393863125e-07
0.00155228183647
-4.20433015921e-07
0.00155258570951
3.18943837053e-07
0.00155238180096
-2.30906694502e-07
0.00155252421039
1.68832480439e-07
0.00155243268813
-1.19186406953e-07
0.00155249164556
8.45414887462e-08
0.00155245879872
-5.68875440378e-08
0.00155247852665
3.93557299702e-08
0.001552470624
-2.52804699532e-08
0.00155247414453
1.72228789605e-08
0.00155247475111
-1.02772322211e-08
0.00155247262849
6.62164544197e-09
0.00155247699167
-3.17567979837e-09
0.00155247559354
2.60526208782e-09
0.00155247866316
-1.1894756931e-09
0.00155247758524
6.87212968659e-10
0.00155248081126
1.20844588051e-10
0.00155248105853
1.10728428371e-09
0.00155248196068
-1.66918090369e-11
0.00155248196168
6.19154524775e-10
0.00155248317338
-4.24387776774e-10
0.00155248162273
-3.74353461386e-10
0.00155248236432
3.71962883647e-11
0.00155248029151
5.60953437599e-10
0.00155247790102
3.12038565542e-10
0.00155247771393
-4.56207384927e-10
0.00155248041097
-9.97164027976e-10
0.00155248041368
1.04812002218e-10
0.00155247976345
-4.8889612845e-10
0.00155247808728
3.14842797413e-11
0.00155247765998
-3.42416672497e-10
0.00155247643878
1.51736865671e-10
0.00155247617377
-2.78172398067e-10
0.00155247505159
1.73874862293e-10
0.00155247477643
-1.15216782245e-10
0.00155247371139
2.15664964743e-10
0.00155247371559
-1.66550294639e-10
0.00155247300136
1.85300428206e-10
0.00155247296476
-9.91098040952e-11
0.00155247206119
-7.00349093267e-12
2.90474545827e-11
0.00155247149937
0.000512635978772
0.000464745548276
0.000461075752321
0.000461331851394
0.000462813503523
0.000461902304316
0.000462916061447
0.000462195338823
0.000462772424425
0.00046235181991
0.000462670458457
0.000462439389025
0.000462607937162
0.000462488546021
0.000462572811363
0.000462515778513
0.000462555133003
0.000462529819964
0.000462546750238
0.000462536468165
0.000462542800838
0.000462539618959
0.000462541908419
0.000462540705619
0.000462541028183
0.000462541139442
0.000462541827034
0.000462541817135
0.000462541972767
0.000462541579756
0.00046254071331
0.000462540807281
0.000462540866283
0.000462541252269
0.000462540308479
0.000462539320081
0.000462538994918
0.000462538506163
0.000462538093697
0.000462537796184
0.000462537501912
0.000462537264074
0.000462537012887
0.000462536895506
0.000462536695923
0.000462536507461
0.000462536310922
0.000462536091825
0.0004625358263
0.000462535631157
0.0607243865702
1.47206636803e-09
0.0607243836916
2.83373890579e-09
0.0607243792053
4.43497492564e-09
0.0607243728482
6.29926477071e-09
0.0607243642146
8.56321256019e-09
0.0607243527012
1.14229601776e-08
0.0607243372676
1.53440804075e-08
0.0607243164145
2.07724383245e-08
0.0607242883504
2.80302865655e-08
0.0607242511731
3.71793173737e-08
0.0607242026431
4.85196035186e-08
0.0607241406721
6.19544609152e-08
0.0607240634354
7.71975380739e-08
0.0607239700614
9.33393427714e-08
0.0607238606746
1.09337030006e-07
0.0607237368239
1.23816306002e-07
0.0607236019344
1.34843035716e-07
0.0607234619595
1.39935070481e-07
0.0607233261227
1.35784426874e-07
0.0607232074112
1.18671849131e-07
0.0607231234309
8.39278660725e-08
0.0607230985476
2.48441487928e-08
0.0607231646868
-6.61967837464e-08
0.0607233601794
-1.95541508571e-07
0.0607237289761
-3.68869071628e-07
0.0607243222044
-5.93299052808e-07
0.0607251996228
-8.77531899212e-07
0.0607264299537
-1.23042306905e-06
0.0607280889452
-1.6592775917e-06
0.0607302608266
-2.17178239887e-06
0.060733032437
-2.77161847729e-06
0.0607364933356
-3.46093590366e-06
0.0607407321477
-4.23888777079e-06
0.0607458331584
-5.10107293147e-06
0.0607518715887
-6.03851552337e-06
0.0607589085466
-7.03702378255e-06
0.060766984789
-8.07633091598e-06
0.0607761142061
-9.12948774652e-06
0.0607862764165
-1.01623062659e-05
0.0607974091779
-1.11328429227e-05
0.0608094000832
-1.19910159697e-05
0.0608220785534
-1.26785714045e-05
0.060835207563
-1.31291448621e-05
0.0608484754529
-1.32680220414e-05
0.0608614892181
-1.3013936792e-05
0.0608737662674
-1.22772230684e-05
0.060884735076
-1.09690232204e-05
0.0608937234768
-8.98861461078e-06
0.0608999416509
-6.2187496008e-06
0.0609024751363
-2.53379499572e-06
0.0609003002757
2.1747032272e-06
0.0608923096379
7.99045309533e-06
0.0608773355523
1.49738882283e-05
0.0608541363674
2.31989355557e-05
0.0608213940413
3.27420553976e-05
0.0607777266658
4.36670478336e-05
0.0607217114762
5.6014836092e-05
0.060651909017
6.98020474515e-05
0.0605668883979
8.50201773883e-05
0.0604652535734
0.000101634324042
0.0603456704885
0.000119582550889
0.0602068943184
0.000138775577737
0.0600477964931
0.000159097197245
0.059867390635
0.000180405175006
0.059664857315
0.000202532601397
0.059439566671
0.000225289876693
0.0591910980374
0.000248467833673
0.0589192551991
0.0002718419986
0.0586240770562
0.000295175442065
0.0583058546182
0.000318220176345
0.0579651224529
0.00034073151157
0.0576026513204
0.000362470234468
0.057219447058
0.000383203201379
0.0568167333973
0.00040271247293
0.0563959313846
0.000420800722745
0.0559586345754
0.000437295430787
0.0555065812931
0.000452051821852
0.0550416237509
0.00046495600828
0.0545656970552
0.000475925086686
0.000484913284677
0.0540807820937
0.0534427285908
2.76266409339e-09
0.0534427257336
5.33038430217e-09
0.0534427213972
8.22125663685e-09
0.0534427155332
1.16185572183e-08
0.05344270766
1.5540682967e-08
0.0534426976841
2.05175516669e-08
0.053442684758
2.73841117933e-08
0.0534426679247
3.71086227228e-08
0.0534426449807
5.0096949764e-08
0.0534426155126
6.66386106048e-08
0.0534425769097
8.6946150113e-08
0.0534425276741
1.10980803714e-07
0.0534424662153
1.38275350026e-07
0.053442391847
1.67386725022e-07
0.0534423046769
1.96065898178e-07
0.0534422061945
2.21997199734e-07
0.0534420987957
2.41773148737e-07
0.053441987725
2.50716399789e-07
0.0534418796844
2.43314718546e-07
0.0534417850911
2.13009911637e-07
0.0534417174316
1.51117249277e-07
0.0534416955018
4.65794486498e-08
0.0534417432054
-1.14340900083e-07
0.0534418912003
-3.43797504158e-07
0.0534421744043
-6.52615385168e-07
0.0534426340925
-1.05336261245e-06
0.0534433164486
-1.56059630582e-06
0.05344427847
-2.19010880102e-06
0.0534455683143
-2.9562354523e-06
0.0534472667684
-3.87000377859e-06
0.05344943542
-4.9405931712e-06
0.053452146236
-6.17201034441e-06
0.0534554697054
-7.56294815873e-06
0.0534594739055
-9.10561920868e-06
0.0534642191448
-1.07843746006e-05
0.0534697561249
-1.25743651109e-05
0.0534761187194
-1.44395572206e-05
0.0534833211993
-1.63323549137e-05
0.0534913500516
-1.81918271211e-05
0.0535001602536
-1.99434961996e-05
0.0535096663327
-2.14978464929e-05
0.0535197389656
-2.27517770527e-05
0.0535301938913
-2.35849717672e-05
0.0535407922312