/*--------------------------------*- C++ -*----------------------------------*\
  =========                 |
  \\      /  F ield         | OpenFOAM: The Open Source CFD Toolbox
   \\    /   O peration     | Website:  https://openfoam.org
    \\  /    A nd           | Version:  9
     \\/     M anipulation  |
\*---------------------------------------------------------------------------*/
FoamFile
{
    format      ascii;
    class       volSymmTensorField;
    location    "120";
    object      tau.water;
}
// * * * * * * * * * * * * * * * * * * * * * * * * * * * * * * * * * * * * * //

dimensions      [1 -1 -2 0 0 0 0];

internalField   nonuniform List<symmTensor> 
12230
(
(0.159084435198 -0.0270164219167 0 -0.0973686258437 0 0)
(0.0836274509651 -0.0427258610816 0 -0.0487307857342 0 0)
(0.0307511847328 -0.0487831080957 0 -0.0152390673062 0 0)
(0.0192438765639 -0.0527415289922 0 -0.00340222588521 0 0)
(0.0131182597295 -0.0532503005499 0 -0.000931489074056 0 0)
(0.0138124300154 -0.0540115581836 0 -8.41066214517e-05 0 0)
(0.0127544396363 -0.0538375087029 0 3.62418202974e-05 0 0)
(0.0134586048873 -0.0540257059888 0 3.55999738638e-06 0 0)
(0.0128712588612 -0.0539240866347 0 1.45429293847e-05 0 0)
(0.0133014754686 -0.0540030461894 0 1.81083934985e-06 0 0)
(0.0129716983159 -0.053956107729 0 3.67522551708e-06 0 0)
(0.0132153677067 -0.0539889105033 0 2.53982566744e-06 0 0)
(0.0130352495747 -0.0539689803943 0 -7.16885734413e-07 0 0)
(0.0131659164072 -0.053982076514 0 2.08932929132e-06 0 0)
(0.0130720381386 -0.0539741312466 0 -1.60596618919e-06 0 0)
(0.0131382524351 -0.0539792135681 0 1.97136510375e-06 0 0)
(0.0130920842244 -0.0539761527043 0 -1.40650956238e-06 0 0)
(0.0131236822667 -0.0539780638933 0 1.41643001052e-06 0 0)
(0.0131023776959 -0.0539768684739 0 -9.21121672493e-07 0 0)
(0.0131164587925 -0.0539776365329 0 8.8061452364e-07 0 0)
(0.0131073553824 -0.0539771590029 0 -5.07884536062e-07 0 0)
(0.0131130995967 -0.0539774513606 0 5.14875535254e-07 0 0)
(0.0131094761412 -0.0539772587335 0 -1.48536314795e-07 0 0)
(0.0131116511577 -0.0539773620549 0 3.03334308204e-07 0 0)
(0.0131103435362 -0.0539772806743 0 2.02926737176e-08 0 0)
(0.0131110508699 -0.0539772988729 0 2.23480505774e-07 0 0)
(0.0131106109321 -0.0539772675225 0 1.3568752765e-07 0 0)
(0.0131108325821 -0.0539772721496 0 1.93488736815e-07 0 0)
(0.0131107184512 -0.053977255813 0 1.56995610247e-07 0 0)
(0.0131107937646 -0.0539772547209 0 1.44213160194e-07 0 0)
(0.0131107714827 -0.0539772540347 0 1.3214412002e-07 0 0)
(0.0131107524506 -0.0539772529664 0 1.62954991628e-07 0 0)
(0.0131107534615 -0.0539772512606 0 1.56672217863e-07 0 0)
(0.0131107704196 -0.0539772471507 0 1.37512694839e-07 0 0)
(0.013110739889 -0.0539772424856 0 1.65475647305e-07 0 0)
(0.0131106502973 -0.0539772371217 0 2.55261777467e-07 0 0)
(0.013110523783 -0.0539772305437 0 3.76758653032e-07 0 0)
(0.0131105016246 -0.0539772239681 0 3.89879709096e-07 0 0)
(0.0131105189564 -0.0539772162002 0 3.68714252835e-07 0 0)
(0.0131105555611 -0.0539772053195 0 3.28442742946e-07 0 0)
(0.0131105983583 -0.0539771928149 0 2.80993217549e-07 0 0)
(0.0131106405648 -0.0539771813429 0 2.32812777342e-07 0 0)
(0.0131106824181 -0.0539771725943 0 1.87132699192e-07 0 0)
(0.0131107223103 -0.0539771666421 0 1.44888583917e-07 0 0)
(0.0131107594433 -0.0539771628698 0 1.06873173984e-07 0 0)
(0.0131107941396 -0.0539771605101 0 7.20023096954e-08 0 0)
(0.0131108211484 -0.0539771588587 0 4.52879011954e-08 0 0)
(0.0131108495925 -0.0539771565695 0 1.78478433087e-08 0 0)
(0.0131108554061 -0.0539771525274 0 9.08662351233e-09 0 0)
(0.013110846111 -0.053977145893 0 1.61584389985e-08 0 0)
(0.184323304969 -0.0810821746537 0 -0.0910779383514 0 0)
(0.142063678015 -0.125757194582 0 -0.0433910659212 0 0)
(0.106523712195 -0.142401071773 0 -0.0133374491051 0 0)
(0.110569648573 -0.154198858032 0 -0.002439842539 0 0)
(0.108627489202 -0.155049233939 0 -0.00104775023768 0 0)
(0.111107663642 -0.157051555624 0 4.99898360561e-05 0 0)
(0.109710842416 -0.156432062339 0 -9.59221463695e-05 0 0)
(0.111072463423 -0.157022416319 0 6.99939769376e-05 0 0)
(0.110237809931 -0.156678247571 0 -5.17689281855e-05 0 0)
(0.110934305349 -0.156935094352 0 4.62886678158e-05 0 0)
(0.11047531198 -0.156774273148 0 -3.27861357844e-05 0 0)
(0.110829495609 -0.1568845151 0 2.82247871982e-05 0 0)
(0.110590066748 -0.156814932285 0 -2.02532645132e-05 0 0)
(0.110766218314 -0.156860507328 0 1.64530294556e-05 0 0)
(0.110647045026 -0.15683203605 0 -1.18626548007e-05 0 0)
(0.110731531545 -0.15685014765 0 9.21575079261e-06 0 0)
(0.11067511735 -0.1568390217 0 -6.46125657862e-06 0 0)
(0.110713827857 -0.156845902329 0 4.81781994558e-06 0 0)
(0.110688440868 -0.156841614677 0 -3.25174705609e-06 0 0)
(0.110705246544 -0.156844269245 0 2.36748979448e-06 0 0)
(0.110694582348 -0.156842635458 0 -1.50097536498e-06 0 0)
(0.110701296409 -0.156843590835 0 1.09527171235e-06 0 0)
(0.110697080372 -0.156842982377 0 -5.44887219368e-07 0 0)
(0.110699587732 -0.156843300783 0 4.97721482825e-07 0 0)
(0.110698074063 -0.156843082958 0 -1.42076148139e-07 0 0)
(0.110698840247 -0.156843145272 0 2.57243375474e-07 0 0)
(0.110698299829 -0.156843063673 0 6.16455403094e-08 0 0)
(0.110698517999 -0.156843064002 0 1.7738300387e-07 0 0)
(0.110698351729 -0.156843016655 0 1.11752716957e-07 0 0)
(0.110698415118 -0.156843004093 0 1.2232037046e-07 0 0)
(0.110698387052 -0.156843002284 0 1.05407460847e-07 0 0)
(0.110698350838 -0.156843000704 0 1.42871392412e-07 0 0)
(0.110698358034 -0.156843013656 0 1.43414348499e-07 0 0)
(0.110698381888 -0.15684301115 0 1.25129304936e-07 0 0)
(0.110698335004 -0.156842993735 0 1.42671086907e-07 0 0)
(0.110698205936 -0.156842973859 0 2.14046404422e-07 0 0)
(0.110698047249 -0.156842955053 0 2.98010677045e-07 0 0)
(0.110697925487 -0.156842923209 0 3.25120579159e-07 0 0)
(0.11069789062 -0.156842876239 0 2.98658219825e-07 0 0)
(0.110697884596 -0.156842825095 0 2.60585477805e-07 0 0)
(0.110697890534 -0.156842784707 0 2.23909748335e-07 0 0)
(0.11069790323 -0.156842753438 0 1.86361890811e-07 0 0)
(0.11069792377 -0.156842731129 0 1.49942487782e-07 0 0)
(0.110697951253 -0.156842716862 0 1.14610804274e-07 0 0)
(0.110697983509 -0.156842708466 0 8.13418888103e-08 0 0)
(0.110698019177 -0.156842703641 0 4.88718376413e-08 0 0)
(0.110698049295 -0.156842699895 0 2.23187843217e-08 0 0)
(0.110698082246 -0.156842694075 0 -4.23598446734e-09 0 0)
(0.110698093775 -0.156842681093 0 -2.5059976851e-08 0 0)
(0.110698076214 -0.156842658891 0 -2.7048698995e-08 0 0)
(0.216666827772 -0.135026061484 0 -0.0795460598346 0 0)
(0.237767844072 -0.201990254424 0 -0.0363937918914 0 0)
(0.24775687038 -0.229640478412 0 -0.0102545080978 0 0)
(0.269365817129 -0.246272133727 0 -0.00202860084228 0 0)
(0.272837634983 -0.247417704119 0 -0.000773652281943 0 0)
(0.280999739731 -0.250316799244 0 -4.65048056817e-05 0 0)
(0.279083258938 -0.249310446162 0 -0.00012362766961 0 0)
(0.281706259577 -0.250309134159 0 5.08889676817e-05 0 0)
(0.28041575357 -0.249733438287 0 -5.57319851381e-05 0 0)
(0.281609734696 -0.250166814255 0 3.96866284942e-05 0 0)
(0.280904050224 -0.249894963489 0 -3.31468269698e-05 0 0)
(0.281462796012 -0.250081448724 0 2.56444719157e-05 0 0)
(0.281109727564 -0.249964478269 0 -1.820592305e-05 0 0)
(0.281368938582 -0.250040287294 0 1.45899397639e-05 0 0)
(0.28120156556 -0.249993209061 0 -1.04421873567e-05 0 0)
(0.281318793697 -0.250022537569 0 8.00430462705e-06 0 0)
(0.281243118191 -0.250004789621 0 -5.53099343072e-06 0 0)
(0.281294326105 -0.250015424476 0 4.10681558858e-06 0 0)
(0.28126157307 -0.25000901647 0 -2.76968691851e-06 0 0)
(0.281282979396 -0.250012760675 0 1.97478890557e-06 0 0)
(0.281269606352 -0.250010531503 0 -1.27957365815e-06 0 0)
(0.281277904598 -0.250011736963 0 8.87562080837e-07 0 0)
(0.281272690481 -0.250010994501 0 -4.66234670179e-07 0 0)
(0.281275727154 -0.250011349067 0 4.02769444228e-07 0 0)
(0.281273934903 -0.250011146088 0 -1.25464518249e-07 0 0)
(0.281274885329 -0.250011233242 0 2.02267452959e-07 0 0)
(0.281274219149 -0.250011163289 0 4.25537828186e-08 0 0)
(0.28127443709 -0.250011134995 0 1.29260391157e-07 0 0)
(0.281274177189 -0.250011074767 0 8.13347586037e-08 0 0)
(0.281274186624 -0.250011043826 0 9.65370009879e-08 0 0)
(0.281274110694 -0.250011018824 0 7.79533613349e-08 0 0)
(0.281273980436 -0.250010993742 0 1.18659775634e-07 0 0)
(0.281273955878 -0.250011011417 0 1.26323061449e-07 0 0)
(0.281273961328 -0.25001099027 0 9.58191966937e-08 0 0)
(0.28127384166 -0.250010913049 0 9.13182827795e-08 0 0)
(0.281273602816 -0.250010837094 0 1.37360050134e-07 0 0)
(0.281273343292 -0.250010793153 0 2.03331673323e-07 0 0)
(0.281273159958 -0.250010754172 0 2.45967874465e-07 0 0)
(0.281273025488 -0.250010685194 0 2.23956255093e-07 0 0)
(0.281272908859 -0.250010605028 0 1.92315801401e-07 0 0)
(0.281272820694 -0.2500105466 0 1.66238005646e-07 0 0)
(0.281272779146 -0.25001050919 0 1.42807291015e-07 0 0)
(0.28127277123 -0.250010485555 0 1.19543509924e-07 0 0)
(0.281272777284 -0.250010470657 0 9.47120183423e-08 0 0)
(0.281272800125 -0.250010463996 0 6.97960860527e-08 0 0)
(0.281272840991 -0.250010462152 0 4.27693732018e-08 0 0)
(0.281272880343 -0.250010458344 0 1.54796100945e-08 0 0)
(0.281272924671 -0.250010450799 0 -1.07685389394e-08 0 0)
(0.281272951012 -0.250010427363 0 -4.68527266814e-08 0 0)
(0.281272920164 -0.250010382565 0 -6.51905011184e-08 0 0)
(0.239772705409 -0.188270980173 0 -0.0612902622486 0 0)
(0.402207020695 -0.278477832763 0 -0.0279907188713 0 0)
(0.439422126647 -0.310855828322 0 -0.00749522033873 0 0)
(0.48873148497 -0.331558099858 0 -0.00124648548237 0 0)
(0.491838717192 -0.331609054724 0 -0.000567009785291 0 0)
(0.503820818524 -0.335118650232 0 -0.000138479150976 0 0)
(0.500121578995 -0.333533237209 0 -6.60479719549e-05 0 0)
(0.504207536107 -0.33486893718 0 -1.89596189419e-06 0 0)
(0.50195293151 -0.334027260446 0 -1.84830397042e-05 0 0)
(0.503816337246 -0.334626898634 0 7.39210902969e-06 0 0)
(0.502649075182 -0.334237609546 0 -8.12022948687e-06 0 0)
(0.503510650279 -0.334496987618 0 5.5884755908e-06 0 0)
(0.502950746943 -0.33433119697 0 -4.36419869359e-06 0 0)
(0.503341746804 -0.334436615276 0 3.42208342466e-06 0 0)
(0.503086790801 -0.334371351174 0 -2.44554361385e-06 0 0)
(0.50325855324 -0.334411037839 0 1.93984995078e-06 0 0)
(0.503147590714 -0.334387523245 0 -1.37066918861e-06 0 0)
(0.50322005625 -0.334400971667 0 1.08530422435e-06 0 0)
(0.503173728563 -0.334393177383 0 -6.12597549318e-07 0 0)
(0.503203161218 -0.334397465942 0 5.2048811401e-07 0 0)
(0.503184791886 -0.334395084292 0 -3.14286416434e-07 0 0)
(0.50319589775 -0.334396229012 0 2.3640942117e-07 0 0)
(0.503188884059 -0.334395585053 0 -8.22674184112e-08 0 0)
(0.50319282513 -0.334395828264 0 1.48542376867e-07 0 0)
(0.50319044223 -0.334395705746 0 1.64528064651e-08 0 0)
(0.503191727346 -0.334395750696 0 1.02038548915e-07 0 0)
(0.50319088623 -0.334395725297 0 6.81409176094e-08 0 0)
(0.503191188524 -0.334395673733 0 7.83958826735e-08 0 0)
(0.503190874655 -0.334395646099 0 7.47588546054e-08 0 0)
(0.503190848671 -0.334395603747 0 7.78845783436e-08 0 0)
(0.503190693454 -0.334395546863 0 4.93313109718e-08 0 0)
(0.503190373308 -0.334395474855 0 7.89065314282e-08 0 0)
(0.503190124112 -0.33439544517 0 1.00051477354e-07 0 0)
(0.503189974713 -0.334395350938 0 5.75793886961e-08 0 0)
(0.503189582494 -0.334395117607 0 1.02083310992e-08 0 0)
(0.503189006489 -0.334394935192 0 4.00737495127e-08 0 0)
(0.503188557738 -0.334394881569 0 1.09702811924e-07 0 0)
(0.503188320974 -0.334394881877 0 1.70422289873e-07 0 0)
(0.503188198491 -0.334394851158 0 1.6280356146e-07 0 0)
(0.503188086106 -0.334394802813 0 1.43225859336e-07 0 0)
(0.503187983478 -0.334394756215 0 1.27620112254e-07 0 0)
(0.503187907982 -0.334394723318 0 1.15732258335e-07 0 0)
(0.503187869514 -0.334394703204 0 1.05277340177e-07 0 0)
(0.503187870004 -0.334394694636 0 9.35759708996e-08 0 0)
(0.503187891503 -0.33439469519 0 7.99390859223e-08 0 0)
(0.503187935138 -0.334394697267 0 5.98626759266e-08 0 0)
(0.503187994778 -0.334394697283 0 3.37697708552e-08 0 0)
(0.50318805502 -0.334394688083 0 4.92524020431e-09 0 0)
(0.503188119858 -0.334394656658 0 -4.14243178717e-08 0 0)
(0.503188073449 -0.334394573522 0 -9.6961612729e-08 0 0)
(0.295243497723 -0.2459905506 0 -0.0350077657668 0 0)
(0.600231911966 -0.35065903308 0 -0.022957010563 0 0)
(0.669145156532 -0.385254295871 0 -0.00655970434617 0 0)
(0.745612348243 -0.4091174864 0 -0.000924910590998 0 0)
(0.74556661942 -0.407854487118 0 -0.000284403660818 0 0)
(0.76115349928 -0.411890017399 0 -0.000192711807589 0 0)
(0.755081245056 -0.409717009615 0 -1.94150688517e-05 0 0)
(0.761274316433 -0.411473629652 0 -4.22517832062e-05 0 0)
(0.757667230117 -0.410332760766 0 1.04113510127e-05 0 0)
(0.760518816157 -0.411140643377 0 -1.80184829267e-05 0 0)
(0.758680335231 -0.410608549627 0 1.02277861556e-05 0 0)
(0.760002462008 -0.410964180363 0 -9.72482995546e-06 0 0)
(0.759132115834 -0.410735316766 0 6.93618199925e-06 0 0)
(0.759729187302 -0.410881436811 0 -5.49430081335e-06 0 0)
(0.759338342429 -0.410790785582 0 4.11998701557e-06 0 0)
(0.759597818616 -0.410845889151 0 -3.05121453267e-06 0 0)
(0.759430787477 -0.410813727509 0 2.50557670577e-06 0 0)
(0.759538030486 -0.410831690832 0 -1.67968624669e-06 0 0)
(0.759469490365 -0.410821299235 0 1.12752233304e-06 0 0)
(0.759512376923 -0.410826860672 0 -8.00452863875e-07 0 0)
(0.759485878906 -0.410824014115 0 5.15194151502e-07 0 0)
(0.759501879488 -0.410825334935 0 -3.60641893536e-07 0 0)
(0.759491992887 -0.410824737151 0 2.59356773796e-07 0 0)
(0.759497487322 -0.410824908613 0 -9.53129553819e-08 0 0)
(0.75949397627 -0.410824806843 0 1.3645184186e-07 0 0)
(0.759495600729 -0.410824728946 0 -2.50234052694e-09 0 0)
(0.75949436561 -0.410824723756 0 9.2912521811e-08 0 0)
(0.75949474057 -0.410824629336 0 3.30991831717e-08 0 0)
(0.759494321663 -0.410824628067 0 7.03117692063e-08 0 0)
(0.759494260433 -0.410824563954 0 5.42339112825e-08 0 0)
(0.759494007112 -0.410824466725 0 9.74939324228e-09 0 0)
(0.7594935072 -0.410824357851 0 2.95808472711e-08 0 0)
(0.759493044942 -0.41082429687 0 6.45892475415e-08 0 0)
(0.75949273685 -0.410824128234 0 -4.8519984531e-09 0 0)
(0.759492027764 -0.410823743257 0 -1.04717616444e-07 0 0)
(0.759491180161 -0.410823579121 0 -5.06318420594e-08 0 0)
(0.759490577872 -0.410823532248 0 2.37508960486e-08 0 0)
(0.759490280764 -0.410823578969 0 1.09070266056e-07 0 0)
(0.759490185329 -0.410823600639 0 1.22228774084e-07 0 0)
(0.759490093617 -0.410823564143 0 1.07258321195e-07 0 0)
(0.75948998289 -0.410823524692 0 9.82838486052e-08 0 0)
(0.759489891218 -0.410823498043 0 9.63588441153e-08 0 0)
(0.759489818171 -0.410823480637 0 9.53740022307e-08 0 0)
(0.759489808845 -0.410823481219 0 9.48501253249e-08 0 0)
(0.75948982869 -0.41082349116 0 9.41998532678e-08 0 0)
(0.759489876658 -0.410823504733 0 8.78925299236e-08 0 0)
(0.75948995624 -0.410823509969 0 6.74037995552e-08 0 0)
(0.75949004589 -0.410823500621 0 3.3660329867e-08 0 0)
(0.759490176348 -0.410823464566 0 -2.07380952091e-08 0 0)
(0.759490149881 -0.410823336098 0 -1.2015678807e-07 0 0)
(0.364448073112 -0.305702990858 0 -0.00644137827629 0 0)
(0.820662162714 -0.41747128679 0 -0.0204840470939 0 0)
(0.927042516742 -0.454216367488 0 -0.00558255780691 0 0)
(1.02824217639 -0.480020515243 0 -0.000710279023583 0 0)
(1.02121144575 -0.476895644406 0 -9.83451628196e-05 0 0)
(1.04116782762 -0.481567785831 0 -0.000220325558165 0 0)
(1.03133403386 -0.478679992214 0 6.95599839508e-06 0 0)
(1.04002566644 -0.480918691738 0 -6.41418786693e-05 0 0)
(1.03447980385 -0.47941085 0 2.75492148002e-05 0 0)
(1.03861953825 -0.480472730729 0 -3.25201937537e-05 0 0)
(1.03583345405 -0.479759001627 0 2.14397630005e-05 0 0)
(1.03778813175 -0.480238994684 0 -1.89073284558e-05 0 0)
(1.03647311718 -0.479925068036 0 1.39386569418e-05 0 0)
(1.03736397311 -0.480127530064 0 -1.11428483238e-05 0 0)
(1.03677419288 -0.480000129257 0 8.37276682637e-06 0 0)
(1.03716259174 -0.480078486021 0 -6.3712793442e-06 0 0)
(1.03691061735 -0.480031519339 0 4.73710582325e-06 0 0)
(1.03707146836 -0.480058526353 0 -3.47675207219e-06 0 0)
(1.03696953517 -0.480043443797 0 2.52887034055e-06 0 0)
(1.03703302153 -0.480051546445 0 -1.69235032071e-06 0 0)
(1.03699391072 -0.480047324656 0 1.1856671762e-06 0 0)
(1.03701740724 -0.480049246391 0 -8.03847188005e-07 0 0)
(1.03700297273 -0.480048377227 0 5.35940730059e-07 0 0)
(1.03701078276 -0.480048565209 0 -3.02471497154e-07 0 0)
(1.0370054982 -0.480048399261 0 2.38514560903e-07 0 0)
(1.03700757164 -0.480048195453 0 -9.90384747503e-08 0 0)
(1.03700565435 -0.48004818075 0 1.04437799134e-07 0 0)
(1.03700599087 -0.480048003692 0 -2.28495078088e-08 0 0)
(1.03700522315 -0.480047962502 0 4.74086213738e-08 0 0)
(1.03700497027 -0.480047833784 0 1.73998562119e-08 0 0)
(1.03700454407 -0.480047689253 0 -3.631448549e-08 0 0)
(1.03700383164 -0.480047560932 0 -1.9410727629e-08 0 0)
(1.03700344601 -0.48004755255 0 1.78345402544e-08 0 0)
(1.03700330303 -0.48004738495 0 -8.86290237849e-08 0 0)
(1.03700255475 -0.480046955638 0 -2.16767589967e-07 0 0)
(1.03700160132 -0.480046818556 0 -1.52525661429e-07 0 0)
(1.03700095362 -0.48004684136 0 -4.32970474699e-08 0 0)
(1.03700050167 -0.480046888029 0 3.37907043586e-08 0 0)
(1.03700029927 -0.480046918903 0 6.95343236567e-08 0 0)
(1.0370001279 -0.480046865663 0 5.75350120888e-08 0 0)
(1.03699996292 -0.480046820672 0 5.36361066548e-08 0 0)
(1.03699983769 -0.480046802714 0 6.23859938724e-08 0 0)
(1.03699976317 -0.480046802159 0 7.66911744379e-08 0 0)
(1.0369997247 -0.480046812164 0 8.82073384473e-08 0 0)
(1.03699974601 -0.480046837067 0 9.88600747139e-08 0 0)
(1.03699979902 -0.480046874448 0 1.10131420819e-07 0 0)
(1.03699988312 -0.480046893437 0 1.02860430974e-07 0 0)
(1.03700000819 -0.480046890227 0 7.04719085677e-08 0 0)
(1.03700017071 -0.48004684104 0 4.97500737053e-09 0 0)
(1.03700022828 -0.480046673251 0 -1.30063792865e-07 0 0)
(0.443946759634 -0.365669634527 0 0.0211108628227 0 0)
(1.06928844955 -0.482593044889 0 -0.0162564433995 0 0)
(1.20318964227 -0.517341711913 0 -0.00474094536796 0 0)
(1.32537826803 -0.544382955348 0 -0.000647626443892 0 0)
(1.30772395204 -0.539223048663 0 8.76491350655e-06 0 0)
(1.33310619078 -0.544740104433 0 -0.000231529989213 0 0)
(1.31832212004 -0.541057543232 0 2.16413544164e-05 0 0)
(1.33013259485 -0.543859490185 0 -7.61192366282e-05 0 0)
(1.32210539087 -0.541929375798 0 3.71381609948e-05 0 0)
(1.32793010056 -0.543296974008 0 -4.10192314635e-05 0 0)
(1.32390928125 -0.542364371639 0 2.79623026091e-05 0 0)
(1.32671368243 -0.542999815816 0 -2.45769533267e-05 0 0)
(1.32480321112 -0.542578256536 0 1.83383953899e-05 0 0)
(1.32609851139 -0.542854553687 0 -1.48211828533e-05 0 0)
(1.32523467107 -0.542677882247 0 1.12053721407e-05 0 0)
(1.32580461389 -0.542788540857 0 -8.67366108366e-06 0 0)
(1.32543361812 -0.542721050389 0 6.46629350622e-06 0 0)
(1.32567078581 -0.542760718282 0 -4.85516000038e-06 0 0)
(1.32552012024 -0.542737987012 0 3.49342736576e-06 0 0)
(1.32561394761 -0.542750614026 0 -2.41802691224e-06 0 0)
(1.32555621152 -0.542743904807 0 1.69921085556e-06 0 0)
(1.32559065591 -0.542747065299 0 -1.1840573512e-06 0 0)
(1.32556938432 -0.542745495384 0 7.50076601792e-07 0 0)
(1.32558072829 -0.54274591471 0 -5.01936088219e-07 0 0)
(1.32557299457 -0.542745579782 0 2.93079622226e-07 0 0)
(1.32557600868 -0.542745362915 0 -2.12922517341e-07 0 0)
(1.32557326413 -0.542745345445 0 1.02048920286e-07 0 0)
(1.32557376018 -0.542745130044 0 -8.31831486287e-08 0 0)
(1.32557257188 -0.54274505767 0 2.44319953369e-08 0 0)
(1.32557212854 -0.542744862895 0 -2.85225342877e-08 0 0)
(1.32557161433 -0.542744707491 0 -9.26491619747e-08 0 0)
(1.32557098916 -0.542744633704 0 -6.81368528558e-08 0 0)
(1.32557093695 -0.542744763161 0 7.23686312503e-10 0 0)
(1.32557103619 -0.542744589079 0 -1.41370109263e-07 0 0)
(1.32557019077 -0.542744058429 0 -3.18749967201e-07 0 0)
(1.32556917009 -0.542743944214 0 -2.42568201915e-07 0 0)
(1.32556809595 -0.542743955223 0 -1.16189119234e-07 0 0)
(1.32556803788 -0.542744180202 0 -2.39900680917e-08 0 0)
(1.32556770079 -0.542744128942 0 -5.29943004289e-09 0 0)
(1.32556747133 -0.542744064749 0 -7.80589014386e-10 0 0)
(1.32556725273 -0.54274402393 0 1.42689051424e-08 0 0)
(1.3255670447 -0.54274400375 0 3.46871454384e-08 0 0)
(1.32556686615 -0.542744001805 0 5.91433892608e-08 0 0)
(1.32556673778 -0.542744019352 0 8.37052987162e-08 0 0)
(1.32556665118 -0.542744048869 0 1.08257300726e-07 0 0)
(1.32556667176 -0.542744103056 0 1.33316312028e-07 0 0)
(1.32556675785 -0.542744159594 0 1.49255141729e-07 0 0)
(1.32556691131 -0.542744165253 0 1.2210072307e-07 0 0)
(1.32556712489 -0.542744104611 0 4.39401953403e-08 0 0)
(1.32556740051 -0.54274391846 0 -1.18337858368e-07 0 0)
(0.531935285782 -0.424568364408 0 0.0475421175 0 0)
(1.34523054292 -0.549078775367 0 -0.0100928679378 0 0)
(1.49360444378 -0.576819552263 0 -0.00340760385676 0 0)
(1.62946400523 -0.602993207827 0 -0.000574132364597 0 0)
(1.597150848 -0.595511009836 0 7.62443070846e-05 0 0)
(1.62880423168 -0.602001530102 0 -0.000233217591703 0 0)
(1.60808042209 -0.59746509543 0 2.8600760767e-05 0 0)
(1.62382121431 -0.60091433862 0 -8.06824426722e-05 0 0)
(1.61276375809 -0.598506675727 0 4.15523640611e-05 0 0)
(1.62073925753 -0.600231712356 0 -4.48795281482e-05 0 0)
(1.61516020638 -0.599040710636 0 3.11896611781e-05 0 0)
(1.61906758359 -0.599863839069 0 -2.74667394345e-05 0 0)
(1.61638244201 -0.59930970064 0 2.07313849503e-05 0 0)
(1.6182142954 -0.599678966387 0 -1.69018428603e-05 0 0)
(1.61698376234 -0.599438630394 0 1.2885320825e-05 0 0)
(1.61780043484 -0.599592146895 0 -1.00968881433e-05 0 0)
(1.61726553929 -0.599496396084 0 7.55205964353e-06 0 0)
(1.6176096927 -0.599554430813 0 -5.68852751703e-06 0 0)
(1.6173906909 -0.599520352144 0 4.22244453061e-06 0 0)
(1.61752689164 -0.59953949141 0 -3.0220517364e-06 0 0)
(1.61744224073 -0.599528759594 0 2.03665738585e-06 0 0)
(1.61749258256 -0.599534179269 0 -1.51361306269e-06 0 0)
(1.61746142914 -0.599531331645 0 8.95692809321e-07 0 0)
(1.61747816428 -0.599532372843 0 -6.84471859119e-07 0 0)
(1.61746709951 -0.599531711927 0 3.25998748018e-07 0 0)
(1.61747177448 -0.599531635421 0 -3.18161997385e-07 0 0)
(1.61746800093 -0.599531584583 0 1.01921925021e-07 0 0)
(1.61746906533 -0.599531409796 0 -1.38790845875e-07 0 0)
(1.61746754385 -0.599531333721 0 -8.00661166153e-09 0 0)
(1.61746715302 -0.599531135091 0 -6.882106546e-08 0 0)
(1.61746675085 -0.599531022765 0 -1.16047714934e-07 0 0)
(1.61746630602 -0.599531009815 0 -9.05947654185e-08 0 0)
(1.61746632863 -0.599531220117 0 1.65238786898e-08 0 0)
(1.61746653944 -0.599530993874 0 -1.59964963367e-07 0 0)
(1.61746555668 -0.599530314063 0 -4.12822253217e-07 0 0)
(1.61746427138 -0.599530171799 0 -3.43060979558e-07 0 0)
(1.61746290271 -0.599530234372 0 -1.80781376076e-07 0 0)
(1.61746292496 -0.599530513443 0 -6.46750919188e-08 0 0)
(1.61746260043 -0.599530460184 0 -4.38390988974e-08 0 0)
(1.61746223786 -0.599530373318 0 -3.22617997146e-08 0 0)
(1.61746186226 -0.599530325357 0 -7.36021591596e-09 0 0)
(1.61746149633 -0.599530294042 0 1.7292938147e-08 0 0)
(1.61746121773 -0.599530301368 0 5.16611885477e-08 0 0)
(1.61746104022 -0.599530337126 0 8.71275234269e-08 0 0)
(1.61746098932 -0.599530394203 0 1.21380847147e-07 0 0)
(1.61746101205 -0.599530466451 0 1.61626755359e-07 0 0)
(1.61746113961 -0.599530579426 0 2.05998176072e-07 0 0)
(1.61746135116 -0.599530609874 0 1.91845505209e-07 0 0)
(1.61746169822 -0.599530563107 0 1.1166246716e-07 0 0)
(1.61746220273 -0.59953035224 0 -7.70610359803e-08 0 0)
(0.629791670663 -0.485140845914 0 0.0743771662643 0 0)
(1.64090971422 -0.614235103243 0 -0.0034193728809 0 0)
(1.78150571373 -0.629795069398 0 -0.00246480668261 0 0)
(1.9313079949 -0.656198151214 0 -0.000428692681561 0 0)
(1.88249915464 -0.646286377049 0 0.000121183811594 0 0)
(1.92220907532 -0.653933572305 0 -0.000220515388025 0 0)
(1.89472385932 -0.648477700856 0 3.05945827231e-05 0 0)
(1.91532896904 -0.652648340741 0 -7.75790410106e-05 0 0)
(1.90063983461 -0.649703267927 0 4.12482093321e-05 0 0)
(1.91128066821 -0.651836088111 0 -4.42710176311e-05 0 0)
(1.90377103036 -0.650344861466 0 3.11662985286e-05 0 0)
(1.90906954612 -0.651389255475 0 -2.76430856118e-05 0 0)
(1.90539834272 -0.650675584969 0 2.10472752998e-05 0 0)
(1.90792289543 -0.651158833184 0 -1.73564152755e-05 0 0)
(1.90621344077 -0.650838666435 0 1.33246548967e-05 0 0)
(1.90735702763 -0.651047251631 0 -1.05982971342e-05 0 0)
(1.90660261043 -0.650914315625 0 7.96601092185e-06 0 0)
(1.90709160894 -0.650996938488 0 -6.11176386145e-06 0 0)
(1.90677802939 -0.650946715028 0 4.44148001551e-06 0 0)
(1.906974377 -0.650976130623 0 -3.31204137617e-06 0 0)
(1.90685274359 -0.650959500586 0 2.3249819637e-06 0 0)
(1.90692611567 -0.650968462744 0 -1.68621633449e-06 0 0)
(1.90688083291 -0.650963405033 0 9.98983334621e-07 0 0)
(1.90690541603 -0.650965563476 0 -8.11719789017e-07 0 0)
(1.90688949703 -0.650964244302 0 3.46650199587e-07 0 0)
(1.90689663194 -0.650964475088 0 -4.04191100059e-07 0 0)
(1.90689127669 -0.650964277916 0 1.00386085866e-07 0 0)
(1.90689312796 -0.650964194369 0 -1.80607141947e-07 0 0)
(1.90689128968 -0.650964106939 0 -3.33092193735e-08 0 0)
(1.9068910086 -0.650963909909 0 -1.02009453634e-07 0 0)
(1.90689060338 -0.650963827809 0 -1.2157508974e-07 0 0)
(1.90689012566 -0.65096381319 0 -1.16071713002e-07 0 0)
(1.90688996511 -0.650964060651 0 3.03146452115e-08 0 0)
(1.90689018874 -0.650963790826 0 -1.55092537722e-07 0 0)
(1.90688920118 -0.650962947257 0 -5.3070727937e-07 0 0)
(1.90688758787 -0.650962750473 0 -4.69671221917e-07 0 0)
(1.90688639272 -0.65096293498 0 -2.62712147207e-07 0 0)
(1.9068857666 -0.650963151593 0 -9.36648970624e-08 0 0)
(1.90688508842 -0.650963065472 0 -6.43051092386e-08 0 0)
(1.90688452656 -0.650962983208 0 -4.79161335225e-08 0 0)
(1.90688406769 -0.650962944763 0 -2.40250303908e-08 0 0)
(1.90688369174 -0.650962937447 0 4.27915897298e-09 0 0)
(1.90688346881 -0.650962980968 0 4.62671112322e-08 0 0)
(1.90688335241 -0.65096305236 0 9.23712368824e-08 0 0)
(1.90688335901 -0.65096313239 0 1.33445170397e-07 0 0)
(1.90688329689 -0.650963200045 0 1.78173272956e-07 0 0)
(1.90688341242 -0.650963359968 0 2.53054751404e-07 0 0)
(1.90688360719 -0.650963444311 0 2.71406381392e-07 0 0)
(1.90688398275 -0.650963396766 0 1.93064125814e-07 0 0)
(1.90688455549 -0.65096312935 0 -2.66884194788e-08 0 0)
(0.734036856905 -0.546314462919 0 0.101181546433 0 0)
(1.94882900367 -0.675135732497 0 0.00206211585558 0 0)
(2.06454182919 -0.678164436695 0 -0.0014783053728 0 0)
(2.22743070045 -0.704472173089 0 -0.00032674681441 0 0)
(2.15909453384 -0.691868222816 0 7.49291567383e-05 0 0)
(2.20899823014 -0.700998510229 0 -0.000208353242502 0 0)
(2.17395651371 -0.694595143521 0 2.43472571966e-05 0 0)
(2.20043307994 -0.699562210781 0 -6.83344858227e-05 0 0)
(2.18145066936 -0.696025084349 0 3.62670623823e-05 0 0)
(2.19531740266 -0.698614049744 0 -3.95051994783e-05 0 0)
(2.1854575466 -0.696782048593 0 2.80518583822e-05 0 0)
(2.19247189579 -0.698080983113 0 -2.51709506183e-05 0 0)
(2.18757092675 -0.697180636483 0 1.93863930897e-05 0 0)
(2.19097008964 -0.697799480634 0 -1.61703590331e-05 0 0)
(2.18864854993 -0.697382529374 0 1.25727445775e-05 0 0)
(2.19021535001 -0.697659208289 0 -1.01317969478e-05 0 0)
(2.18917299036 -0.697479221669 0 7.69499004758e-06 0 0)
(2.18985460842 -0.697593738488 0 -5.99023799408e-06 0 0)
(2.1894145516 -0.697522440063 0 4.41531913964e-06 0 0)
(2.18969277279 -0.697565723862 0 -3.2483707849e-06 0 0)
(2.18951909897 -0.697540202061 0 2.36437202143e-06 0 0)
(2.18962413953 -0.697554270031 0 -1.835707076e-06 0 0)
(2.18955910957 -0.697546040558 0 9.78186269176e-07 0 0)
(2.18959521865 -0.697550103715 0 -9.10810617214e-07 0 0)
(2.18957249814 -0.697547734111 0 3.23195762865e-07 0 0)
(2.18958337075 -0.697548542305 0 -4.84775700406e-07 0 0)
(2.18957569823 -0.697548051611 0 8.17347457155e-08 0 0)
(2.18957858681 -0.697548133289 0 -2.13713541873e-07 0 0)
(2.18957619497 -0.697547973054 0 -6.49744626487e-08 0 0)
(2.18957587287 -0.69754774775 0 -1.48530430803e-07 0 0)
(2.18957502393 -0.69754757996 0 -1.63283766381e-07 0 0)
(2.18957485812 -0.697547611214 0 -1.73997834651e-07 0 0)
(2.18957444592 -0.697547957546 0 4.5884033085e-08 0 0)
(2.18957487359 -0.69754773189 0 -1.21317160184e-07 0 0)
(2.18957434814 -0.697546744491 0 -6.5400442808e-07 0 0)
(2.18957293579 -0.697546512377 0 -6.26256795103e-07 0 0)
(2.18957107117 -0.697546622779 0 -3.93268405375e-07 0 0)
(2.18956997017 -0.697546878092 0 -1.46338194853e-07 0 0)
(2.18956910631 -0.697546862757 0 -7.92095352564e-08 0 0)
(2.18956837686 -0.697546783894 0 -5.93499365947e-08 0 0)
(2.18956789775 -0.697546770418 0 -3.26976639009e-08 0 0)
(2.1895675296 -0.697546775785 0 -4.08964948829e-09 0 0)
(2.1895674017 -0.697546850791 0 4.14485655676e-08 0 0)
(2.18956729299 -0.697546938354 0 9.51065482816e-08 0 0)
(2.18956723981 -0.69754701133 0 1.37558447336e-07 0 0)
(2.18956709343 -0.697547074668 0 1.86787021002e-07 0 0)
(2.18956686578 -0.697547215063 0 2.79530877027e-07 0 0)
(2.18956697652 -0.697547387216 0 3.51241263329e-07 0 0)
(2.18956722772 -0.69754733556 0 2.89503438107e-07 0 0)
(2.18956754291 -0.697546972023 0 4.30103923622e-08 0 0)
(0.843179477837 -0.60793149044 0 0.128252821115 0 0)
(2.2748420591 -0.732717177225 0 0.00601303835458 0 0)
(2.33767926575 -0.721567637868 0 -0.000669061223273 0 0)
(2.51126047737 -0.74781451089 0 -0.000356004763017 0 0)
(2.42444400157 -0.733167514818 0 7.02966540189e-05 0 0)
(2.48664585574 -0.743780334519 0 -0.000169076610708 0 0)
(2.44291340137 -0.736313306584 0 1.54444010004e-05 0 0)
(2.47619498766 -0.742119622183 0 -5.20764082711e-05 0 0)
(2.45214180241 -0.737933454011 0 2.68784355332e-05 0 0)
(2.46983010662 -0.741022131581 0 -3.06397385127e-05 0 0)
(2.45714432972 -0.738810095738 0 2.17959748051e-05 0 0)
(2.46623940525 -0.740395925563 0 -2.0068488433e-05 0 0)
(2.45982787101 -0.739281843791 0 1.56538677587e-05 0 0)
(2.46431328662 -0.740058225536 0 -1.33239955008e-05 0 0)
(2.46122173734 -0.739526877391 0 1.05210750625e-05 0 0)
(2.46332750636 -0.739885461804 0 -8.6651706102e-06 0 0)
(2.46191346378 -0.739647732864 0 6.64391120876e-06 0 0)