/*--------------------------------*- C++ -*----------------------------------*\
  =========                 |
  \\      /  F ield         | OpenFOAM: The Open Source CFD Toolbox
   \\    /   O peration     | Website:  https://openfoam.org
    \\  /    A nd           | Version:  9
     \\/     M anipulation  |
\*---------------------------------------------------------------------------*/
FoamFile
{
    format      ascii;
    class       volSymmTensorField;
    location    "120";
    object      tauMF;
}
// * * * * * * * * * * * * * * * * * * * * * * * * * * * * * * * * * * * * * //

dimensions      [1 -1 -2 0 0 0 0];

internalField   nonuniform List<symmTensor> 
12230
(
(0.159084435189 -0.0270164219171 0 -0.0973686258414 0 0)
(0.0836274509521 -0.0427258610806 0 -0.0487307857291 0 0)
(0.0307511847243 -0.0487831080964 0 -0.0152390672992 0 0)
(0.0192438765483 -0.0527415289955 0 -0.00340222587069 0 0)
(0.013118259712 -0.053250300549 0 -0.000931489063561 0 0)
(0.0138124299977 -0.0540115581866 0 -8.41066096349e-05 0 0)
(0.0127544396211 -0.0538375087058 0 3.62418273957e-05 0 0)
(0.0134586048686 -0.0540257059959 0 3.56001385402e-06 0 0)
(0.0128712588356 -0.0539240866474 0 1.45429495109e-05 0 0)
(0.0133014754396 -0.0540030462202 0 1.81087226105e-06 0 0)
(0.0129716982746 -0.0539561076983 0 3.67524977755e-06 0 0)
(0.0132153676658 -0.0539889104379 0 2.53984463577e-06 0 0)
(0.0130352495309 -0.0539689803216 0 -7.16870254464e-07 0 0)
(0.0131659163494 -0.0539820764569 0 2.08936550386e-06 0 0)
(0.0130720380833 -0.0539741311991 0 -1.60593627944e-06 0 0)
(0.0131382523689 -0.0539792135179 0 1.97140389177e-06 0 0)
(0.013092084165 -0.053976152748 0 -1.40645507591e-06 0 0)
(0.0131236822112 -0.0539780639319 0 1.41647702364e-06 0 0)
(0.0131023776718 -0.0539768685619 0 -9.21089403641e-07 0 0)
(0.0131164587777 -0.0539776366423 0 8.80636685584e-07 0 0)
(0.0131073553545 -0.0539771590959 0 -5.07847459007e-07 0 0)
(0.0131130995871 -0.0539774514424 0 5.14883351332e-07 0 0)
(0.0131094761634 -0.0539772588047 0 -1.48559427101e-07 0 0)
(0.0131116511596 -0.0539773621128 0 3.03322476962e-07 0 0)
(0.0131103434206 -0.0539772806745 0 2.0394306917e-08 0 0)
(0.0131110507194 -0.0539772988679 0 2.23604428825e-07 0 0)
(0.0131106107738 -0.0539772674587 0 1.35813199217e-07 0 0)
(0.0131108324215 -0.0539772719593 0 1.93586430961e-07 0 0)
(0.0131107183721 -0.053977255358 0 1.5692947769e-07 0 0)
(0.013110793665 -0.0539772539106 0 1.44052074437e-07 0 0)
(0.0131107711749 -0.0539772528835 0 1.3215980232e-07 0 0)
(0.0131107519547 -0.0539772514796 0 1.63089059398e-07 0 0)
(0.0131107529414 -0.0539772495534 0 1.56766406932e-07 0 0)
(0.013110769887 -0.0539772453895 0 1.37600634632e-07 0 0)
(0.0131107392256 -0.0539772407002 0 1.65690612384e-07 0 0)
(0.0131106494362 -0.0539772352928 0 2.55682047518e-07 0 0)
(0.0131105231061 -0.0539772287062 0 3.76970631111e-07 0 0)
(0.0131105012034 -0.0539772220836 0 3.89799291838e-07 0 0)
(0.0131105185417 -0.0539772142607 0 3.68629896874e-07 0 0)
(0.0131105551422 -0.053977203322 0 3.28359308511e-07 0 0)
(0.0131105979183 -0.0539771907731 0 2.80897164937e-07 0 0)
(0.0131106401508 -0.0539771793546 0 2.32706151607e-07 0 0)
(0.0131106821451 -0.0539771711625 0 1.87024169381e-07 0 0)
(0.0131107221861 -0.0539771658622 0 1.44794472366e-07 0 0)
(0.013110759337 -0.0539771621985 0 1.06792100266e-07 0 0)
(0.0131107940098 -0.0539771598137 0 7.19408432311e-08 0 0)
(0.0131108209951 -0.0539771581297 0 4.52477759088e-08 0 0)
(0.0131108494179 -0.0539771557988 0 1.78037080888e-08 0 0)
(0.013110855089 -0.053977151711 0 9.17880667888e-09 0 0)
(0.0131108457192 -0.0539771450281 0 1.63114671998e-08 0 0)
(0.18432330496 -0.0810821746534 0 -0.0910779383493 0 0)
(0.142063677999 -0.125757194579 0 -0.0433910659151 0 0)
(0.106523712167 -0.142401071763 0 -0.0133374491025 0 0)
(0.110569648532 -0.154198858016 0 -0.00243984252802 0 0)
(0.108627489151 -0.155049233915 0 -0.00104775022951 0 0)
(0.111107663584 -0.1570515556 0 4.99898480329e-05 0 0)
(0.109710842352 -0.156432062303 0 -9.59221449304e-05 0 0)
(0.111072463345 -0.157022416279 0 6.9993990152e-05 0 0)
(0.110237809843 -0.156678247537 0 -5.17689125769e-05 0 0)
(0.11093430459 -0.156935093391 0 4.62887003626e-05 0 0)
(0.110475306071 -0.156774264873 0 -3.27861168433e-05 0 0)
(0.110829489154 -0.156884506059 0 2.82248056294e-05 0 0)
(0.110590060082 -0.156814922927 0 -2.02532600954e-05 0 0)
(0.110766211879 -0.156860498362 0 1.64530574649e-05 0 0)
(0.11064703827 -0.156832026624 0 -1.18626371461e-05 0 0)
(0.110731524851 -0.156850138352 0 9.21578015667e-06 0 0)
(0.110675113398 -0.156839016316 0 -6.46120949512e-06 0 0)
(0.110713823528 -0.156845896399 0 4.81785150021e-06 0 0)
(0.110688436652 -0.156841608877 0 -3.25171942608e-06 0 0)
(0.110705242729 -0.156844263983 0 2.36748846411e-06 0 0)
(0.110694582045 -0.1568426352 0 -1.50094998719e-06 0 0)
(0.110701296339 -0.156843590869 0 1.09526748225e-06 0 0)
(0.11069708036 -0.15684298242 0 -5.44904168695e-07 0 0)
(0.110699587755 -0.156843300844 0 4.97668803713e-07 0 0)
(0.11069807385 -0.156843082918 0 -1.4201737503e-07 0 0)
(0.110698839064 -0.156843143978 0 2.57346923764e-07 0 0)
(0.110698296822 -0.156843059753 0 6.17432618477e-08 0 0)
(0.110698515635 -0.156843060929 0 1.77462112435e-07 0 0)
(0.110698350801 -0.156843015367 0 1.11723392432e-07 0 0)
(0.110698412401 -0.156843000109 0 1.22183541102e-07 0 0)
(0.110698316778 -0.156842902778 0 1.05392059835e-07 0 0)
(0.110698263544 -0.156842877235 0 1.42997013917e-07 0 0)
(0.110698270737 -0.156842890167 0 1.43521807406e-07 0 0)
(0.110698300226 -0.15684289563 0 1.25183903041e-07 0 0)
(0.110698240122 -0.156842859629 0 1.42774764175e-07 0 0)
(0.11069806125 -0.15684276947 0 2.14290755892e-07 0 0)
(0.110697897284 -0.156842743037 0 2.98131943452e-07 0 0)
(0.110697775551 -0.156842711032 0 3.25019098018e-07 0 0)
(0.11069778776 -0.156842730543 0 2.98521276949e-07 0 0)
(0.110697881279 -0.156842820439 0 2.60528883112e-07 0 0)
(0.110697889895 -0.156842783861 0 2.23849953227e-07 0 0)
(0.110697902597 -0.156842752595 0 1.86286806581e-07 0 0)
(0.110697923151 -0.156842730284 0 1.49847704716e-07 0 0)
(0.110697950649 -0.15684271601 0 1.14512110456e-07 0 0)
(0.110697982914 -0.156842707596 0 8.12381074994e-08 0 0)
(0.110698018569 -0.156842702741 0 4.8769581532e-08 0 0)
(0.110698048651 -0.156842698944 0 2.22309593534e-08 0 0)
(0.110698081594 -0.15684269305 0 -4.35323733995e-09 0 0)
(0.110698092902 -0.156842679964 0 -2.51027034181e-08 0 0)
(0.110698075178 -0.156842657657 0 -2.70296894859e-08 0 0)
(0.21666682777 -0.135026061485 0 -0.0795460598342 0 0)
(0.237767844051 -0.201990254415 0 -0.0363937918884 0 0)
(0.247756870334 -0.229640478392 0 -0.0102545080987 0 0)
(0.26936581706 -0.246272133695 0 -0.00202860083625 0 0)
(0.272837634879 -0.24741770407 0 -0.000773652276869 0 0)
(0.280999739589 -0.25031679918 0 -4.65047996926e-05 0 0)
(0.279083258777 -0.249310446073 0 -0.000123627671532 0 0)
(0.281706259421 -0.250309134073 0 5.08889745466e-05 0 0)
(0.28041572973 -0.249733417133 0 -5.57319696508e-05 0 0)
(0.281609698937 -0.250166782595 0 3.96866446563e-05 0 0)
(0.280904023942 -0.249894940227 0 -3.31468162497e-05 0 0)
(0.281462781351 -0.250081435807 0 2.56444830303e-05 0 0)
(0.281109706218 -0.249964459385 0 -1.8205926669e-05 0 0)
(0.281368889965 -0.250040244229 0 1.45899521406e-05 0 0)
(0.281201509585 -0.249993159449 0 -1.04421777719e-05 0 0)
(0.28131873764 -0.250022487938 0 8.0043203862e-06 0 0)
(0.281243062027 -0.250004739928 0 -5.53095544604e-06 0 0)
(0.28129426454 -0.250015369981 0 4.10682946776e-06 0 0)
(0.281261525907 -0.250008974773 0 -2.76967024582e-06 0 0)
(0.281282973072 -0.250012755244 0 1.97477555621e-06 0 0)
(0.28126960583 -0.250010531254 0 -1.27956324676e-06 0 0)
(0.281277904105 -0.250011736712 0 8.8755769323e-07 0 0)
(0.2812726901 -0.250010994292 0 -4.66227942614e-07 0 0)
(0.281275727047 -0.250011348971 0 4.02723522682e-07 0 0)
(0.281273760989 -0.250010991637 0 -1.25443030782e-07 0 0)
(0.281274566069 -0.250010949759 0 2.02329345949e-07 0 0)
(0.281273919137 -0.250010896928 0 4.26034305347e-08 0 0)
(0.281274199807 -0.250010924414 0 1.29326653709e-07 0 0)
(0.281274020464 -0.250010935662 0 8.13627315659e-08 0 0)
(0.281274068308 -0.250010938728 0 9.64271565988e-08 0 0)
(0.281273994407 -0.250010915678 0 7.79191921862e-08 0 0)
(0.281273864016 -0.250010890694 0 1.1879010548e-07 0 0)
(0.281273770459 -0.250010846896 0 1.26434971309e-07 0 0)
(0.281273582039 -0.250010653396 0 9.58281466074e-08 0 0)
(0.281273462094 -0.250010575927 0 9.12785445672e-08 0 0)
(0.281273223005 -0.250010499924 0 1.37428393129e-07 0 0)
(0.281272963143 -0.250010455662 0 2.03395257896e-07 0 0)
(0.281272779779 -0.250010416551 0 2.45902570809e-07 0 0)
(0.281272820792 -0.250010503603 0 2.23829480946e-07 0 0)
(0.281272905213 -0.250010602269 0 1.92269083055e-07 0 0)
(0.281272819556 -0.250010546039 0 1.66226059927e-07 0 0)
(0.281272778299 -0.250010508729 0 1.42795816722e-07 0 0)
(0.281272770445 -0.250010485109 0 1.19493020668e-07 0 0)
(0.28127277659 -0.250010470235 0 9.46423541783e-08 0 0)
(0.281272799526 -0.250010463588 0 6.97038451545e-08 0 0)
(0.281272840458 -0.25001046174 0 4.26527193076e-08 0 0)
(0.281272879795 -0.250010457892 0 1.53454468264e-08 0 0)
(0.281272924168 -0.250010450282 0 -1.0951046066e-08 0 0)
(0.281272950229 -0.250010426697 0 -4.70434694034e-08 0 0)
(0.28127291911 -0.250010381748 0 -6.53365804498e-08 0 0)
(0.239772705418 -0.188270980174 0 -0.0612902622493 0 0)
(0.402207020659 -0.27847783275 0 -0.0279907188708 0 0)
(0.439422126586 -0.310855828298 0 -0.00749522033888 0 0)
(0.488731484861 -0.331558099817 0 -0.00124648548143 0 0)
(0.491838717025 -0.331609054662 0 -0.000567009784268 0 0)
(0.503820818304 -0.335118650154 0 -0.000138479149894 0 0)
(0.500121578759 -0.333533237106 0 -6.60479750223e-05 0 0)
(0.504207535969 -0.334868937123 0 -1.89595779519e-06 0 0)
(0.501952815837 -0.334027183542 0 -1.84830297461e-05 0 0)
(0.503816193989 -0.334626803596 0 7.39211512936e-06 0 0)
(0.502648932099 -0.334237514547 0 -8.12022443319e-06 0 0)
(0.503510608288 -0.334496959862 0 5.58848052107e-06 0 0)
(0.502950746464 -0.334331196768 0 -4.36420266543e-06 0 0)
(0.503341746318 -0.334436615085 0 3.42208577163e-06 0 0)
(0.503086768206 -0.334371336303 0 -2.44554480892e-06 0 0)
(0.503258413595 -0.334410945238 0 1.93985822227e-06 0 0)
(0.503147394884 -0.33438739336 0 -1.37064064563e-06 0 0)
(0.503219860311 -0.33440084172 0 1.08531366785e-06 0 0)
(0.503173601531 -0.334393093233 0 -6.12592609688e-07 0 0)
(0.503203154662 -0.334397461821 0 5.20478580884e-07 0 0)
(0.503184790922 -0.334395083894 0 -3.14289287622e-07 0 0)
(0.503195896851 -0.334396228645 0 2.36421011518e-07 0 0)
(0.503188883237 -0.334395584726 0 -8.22311254219e-08 0 0)
(0.503192824658 -0.334395828033 0 1.48531604434e-07 0 0)
(0.503190430705 -0.334395698145 0 1.64321865165e-08 0 0)
(0.503191143465 -0.334395362849 0 1.0204552878e-07 0 0)
(0.503190260829 -0.334395309912 0 6.81492089699e-08 0 0)
(0.503190562983 -0.334395258344 0 7.84541977284e-08 0 0)
(0.5031902502 -0.334395231392 0 7.48403000224e-08 0 0)
(0.503190205366 -0.334395176429 0 7.78052363466e-08 0 0)
(0.503190011341 -0.334395093905 0 4.92359163516e-08 0 0)
(0.503189685478 -0.334395018606 0 7.90450428637e-08 0 0)
(0.503189436455 -0.33439498889 0 1.00143383902e-07 0 0)
(0.503189408605 -0.334394975269 0 5.75860906595e-08 0 0)
(0.50318939391 -0.334394992641 0 1.00211368407e-08 0 0)
(0.503188996962 -0.334394929493 0 4.00603392879e-08 0 0)
(0.503188555965 -0.334394880948 0 1.09752168456e-07 0 0)
(0.503188319665 -0.334394881331 0 1.70392636125e-07 0 0)
(0.503188196894 -0.334394850477 0 1.62754253778e-07 0 0)
(0.503188084348 -0.334394802161 0 1.43229560182e-07 0 0)
(0.503187981851 -0.334394755648 0 1.27655845888e-07 0 0)
(0.503187906502 -0.334394722816 0 1.15777430949e-07 0 0)
(0.503187868222 -0.334394702718 0 1.05285678308e-07 0 0)
(0.503187868823 -0.334394694172 0 9.35589622616e-08 0 0)
(0.50318789044 -0.334394694738 0 7.98777212038e-08 0 0)
(0.503187934223 -0.334394696824 0 5.97619160051e-08 0 0)
(0.503187993893 -0.334394696799 0 3.36152600849e-08 0 0)
(0.503188054236 -0.33439468752 0 4.70441824635e-09 0 0)
(0.503188118755 -0.334394655842 0 -4.18021968133e-08 0 0)
(0.503188071976 -0.334394572487 0 -9.72934963068e-08 0 0)
(0.295243497727 -0.2459905506 0 -0.0350077657699 0 0)
(0.60023191193 -0.350659033067 0 -0.0229570105623 0 0)
(0.669145156451 -0.385254295845 0 -0.00655970434732 0 0)
(0.745612348086 -0.409117486355 0 -0.000924910592018 0 0)
(0.745566619188 -0.407854487051 0 -0.000284403662849 0 0)
(0.761153498995 -0.411890017317 0 -0.000192711808591 0 0)
(0.755081244808 -0.409717009529 0 -1.94150702871e-05 0 0)
(0.761274256474 -0.411473597283 0 -4.22517769857e-05 0 0)
(0.757667008106 -0.410332640612 0 1.04113451905e-05 0 0)
(0.760518609848 -0.411140531974 0 -1.80184785741e-05 0 0)
(0.7586802414 -0.41060849901 0 1.02277837768e-05 0 0)
(0.760002457241 -0.410964177954 0 -9.72482143927e-06 0 0)
(0.75913211519 -0.410735316564 0 6.93618107969e-06 0 0)
(0.759729129225 -0.410881405541 0 -5.49430065985e-06 0 0)
(0.759338063538 -0.410790634854 0 4.11997915798e-06 0 0)
(0.759597523467 -0.41084572971 0 -3.05121512092e-06 0 0)
(0.759430492045 -0.410813567986 0 2.50558598545e-06 0 0)
(0.759537905472 -0.4108316235 0 -1.67968332039e-06 0 0)
(0.759469456052 -0.410821280961 0 1.12752999502e-06 0 0)
(0.759512343061 -0.410826842599 0 -8.00452402071e-07 0 0)
(0.759485834721 -0.41082399044 0 5.15192113438e-07 0 0)
(0.759501778803 -0.410825280715 0 -3.60621839024e-07 0 0)
(0.759491788115 -0.410824626692 0 2.59408430607e-07 0 0)
(0.759497070962 -0.410824683661 0 -9.5286739276e-08 0 0)
(0.759493388762 -0.410824489204 0 1.36370998544e-07 0 0)
(0.759494711157 -0.410824247961 0 -2.54488480334e-09 0 0)
(0.759493660434 -0.410824342594 0 9.28971093027e-08 0 0)
(0.759494104852 -0.410824285837 0 3.3158388169e-08 0 0)
(0.759493452515 -0.410824158281 0 7.04125367995e-08 0 0)
(0.759493223732 -0.41082400343 0 5.41425382608e-08 0 0)
(0.759492969886 -0.410823906046 0 9.59601780963e-09 0 0)
(0.759492469114 -0.410823797303 0 2.97017278938e-08 0 0)
(0.759492268115 -0.410823877578 0 6.46546069623e-08 0 0)
(0.759492558878 -0.410824032696 0 -4.88924530653e-09 0 0)
(0.759492024433 -0.410823741987 0 -1.04937791399e-07 0 0)
(0.759491177466 -0.410823578396 0 -5.06456427903e-08 0 0)
(0.759490575675 -0.410823531775 0 2.38570225483e-08 0 0)
(0.759490279182 -0.410823578544 0 1.09056891355e-07 0 0)
(0.759490183546 -0.410823600033 0 1.22169393855e-07 0 0)
(0.759490091625 -0.410823563581 0 1.07286905575e-07 0 0)
(0.759489980825 -0.410823524158 0 9.83429817232e-08 0 0)
(0.759489889267 -0.410823497567 0 9.64382785502e-08 0 0)
(0.759489816285 -0.410823480123 0 9.53954274895e-08 0 0)
(0.75948980721 -0.410823480775 0 9.48824860474e-08 0 0)
(0.75948982715 -0.410823490724 0 9.41980509541e-08 0 0)
(0.759489875305 -0.410823504287 0 8.78354212627e-08 0 0)
(0.759489955056 -0.410823509479 0 6.72469037268e-08 0 0)
(0.759490044875 -0.410823500035 0 3.34058888335e-08 0 0)
(0.759490175401 -0.410823463715 0 -2.12124532936e-08 0 0)
(0.759490147901 -0.410823334758 0 -1.20740545941e-07 0 0)
(0.36444807312 -0.305702990858 0 -0.00644137827963 0 0)
(0.820662162662 -0.417471286777 0 -0.0204840470939 0 0)
(0.927042516644 -0.454216367464 0 -0.00558255780863 0 0)
(1.0282421762 -0.480020515198 0 -0.000710279026935 0 0)
(1.0212114455 -0.476895644341 0 -9.83451673097e-05 0 0)
(1.04116782736 -0.48156778577 0 -0.000220325558402 0 0)
(1.03133403367 -0.478679992171 0 6.95600182108e-06 0 0)
(1.04002541675 -0.480918576336 0 -6.41418619167e-05 0 0)
(1.03447949754 -0.479410708135 0 2.75491947297e-05 0 0)
(1.03861924469 -0.480472595062 0 -3.25201911363e-05 0 0)
(1.03583327597 -0.479758919323 0 2.14397558733e-05 0 0)
(1.03778809312 -0.480238977 0 -1.89073164278e-05 0 0)
(1.03647311638 -0.479925067855 0 1.3938660017e-05 0 0)
(1.0373639724 -0.480127529918 0 -1.11428459278e-05 0 0)
(1.03677419213 -0.480000129081 0 8.37276342948e-06 0 0)
(1.03716232305 -0.480078361846 0 -6.37129096736e-06 0 0)
(1.03691021428 -0.48003133302 0 4.73709459437e-06 0 0)
(1.03707114665 -0.480058377737 0 -3.47674933002e-06 0 0)
(1.03696934136 -0.480043354379 0 2.52888427921e-06 0 0)
(1.03703283311 -0.480051459488 0 -1.69233811891e-06 0 0)
(1.036993676 -0.480047216249 0 1.18567022831e-06 0 0)
(1.03701674886 -0.480048941904 0 -8.03823669614e-07 0 0)
(1.03700206118 -0.480047955662 0 5.3598138516e-07 0 0)
(1.037009871 -0.480048143584 0 -3.02429848301e-07 0 0)
(1.03700460251 -0.480047984961 0 2.3843099857e-07 0 0)
(1.03700667154 -0.480047779093 0 -9.91167087968e-08 0 0)
(1.03700476186 -0.480047768025 0 1.04385846731e-07 0 0)
(1.0370051226 -0.480047602293 0 -2.28127817744e-08 0 0)
(1.03700440101 -0.48004758247 0 4.7497855635e-08 0 0)
(1.03700420785 -0.480047481169 0 1.72846887972e-08 0 0)
(1.03700391646 -0.480047399152 0 -3.64697089563e-08 0 0)
(1.03700348056 -0.480047399334 0 -1.93525604794e-08 0 0)
(1.03700339805 -0.480047531038 0 1.78673550444e-08 0 0)
(1.03700330034 -0.480047384287 0 -8.86780321004e-08 0 0)
(1.03700255169 -0.480046954729 0 -2.16932912892e-07 0 0)
(1.03700159866 -0.480046817994 0 -1.52529824869e-07 0 0)
(1.03700095127 -0.480046841223 0 -4.30482514094e-08 0 0)
(1.03700049941 -0.480046887729 0 3.40558837786e-08 0 0)
(1.03700029661 -0.480046918132 0 6.9398887726e-08 0 0)
(1.03700012526 -0.48004686505 0 5.75093617601e-08 0 0)
(1.03699996028 -0.480046820129 0 5.36712443199e-08 0 0)
(1.03699983535 -0.480046802301 0 6.24759368528e-08 0 0)
(1.03699976087 -0.480046801711 0 7.67461081445e-08 0 0)
(1.03699972264 -0.480046811776 0 8.82634803741e-08 0 0)
(1.036999744 -0.480046836693 0 9.88980860345e-08 0 0)
(1.03699979727 -0.480046874143 0 1.10160250633e-07 0 0)
(1.03699988148 -0.480046892986 0 1.02749808905e-07 0 0)
(1.03700000683 -0.480046889682 0 7.02234522853e-08 0 0)
(1.03700016944 -0.480046840127 0 4.44914192939e-09 0 0)
(1.0370002263 -0.480046671718 0 -1.30958344195e-07 0 0)
(0.443946759642 -0.365669634526 0 0.0211108628192 0 0)
(1.06928844948 -0.482593044875 0 -0.016256443401 0 0)
(1.20318964216 -0.517341711893 0 -0.00474094537044 0 0)
(1.32537826782 -0.544382955308 0 -0.000647626448542 0 0)
(1.30772395181 -0.539223048611 0 8.76490866014e-06 0 0)
(1.33310619063 -0.544740104418 0 -0.000231529987829 0 0)
(1.31832205608 -0.541057517052 0 2.16413577367e-05 0 0)
(1.33013241731 -0.543859417684 0 -7.61192270797e-05 0 0)
(1.32210508962 -0.541929252408 0 3.71381348402e-05 0 0)
(1.32792976021 -0.54329683488 0 -4.10192297982e-05 0 0)
(1.32390896895 -0.542364243863 0 2.79622913035e-05 0 0)
(1.32671347578 -0.542999731442 0 -2.4576937284e-05 0 0)
(1.32480303017 -0.542578182649 0 1.83383973653e-05 0 0)
(1.326098285 -0.542854461243 0 -1.48211776237e-05 0 0)
(1.32523424712 -0.542677708882 0 1.12053660037e-05 0 0)
(1.32580413076 -0.542788343294 0 -8.67367672059e-06 0 0)
(1.32543316713 -0.542720865994 0 6.4662704552e-06 0 0)
(1.32567038481 -0.542760554416 0 -4.85515520243e-06 0 0)
(1.32551979303 -0.542737853393 0 3.49345093337e-06 0 0)
(1.3256135689 -0.542750459321 0 -2.41800646815e-06 0 0)
(1.3255557621 -0.542743721168 0 1.6992148212e-06 0 0)
(1.3255900668 -0.542746824506 0 -1.18403582193e-06 0 0)
(1.32556873548 -0.542745230238 0 7.50094432749e-07 0 0)
(1.32558002886 -0.542745628891 0 -5.01913948321e-07 0 0)
(1.32557230191 -0.542745296616 0 2.92979860187e-07 0 0)
(1.32557533237 -0.542745086409 0 -2.12997859254e-07 0 0)
(1.32557268587 -0.542745109186 0 1.0198807556e-07 0 0)
(1.32557349314 -0.542745021353 0 -8.31495148906e-08 0 0)
(1.32557256071 -0.542745053818 0 2.45010935857e-08 0 0)
(1.32557212572 -0.542744862077 0 -2.86578999535e-08 0 0)
(1.32557161142 -0.542744706679 0 -9.28536145372e-08 0 0)
(1.3255709866 -0.542744633439 0 -6.80576630156e-08 0 0)
(1.32557093463 -0.542744762811 0 7.54883618491e-10 0 0)
(1.32557103378 -0.542744588568 0 -1.41434406257e-07 0 0)
(1.32557018771 -0.542744057633 0 -3.18904222373e-07 0 0)
(1.32556916731 -0.542743943832 0 -2.42513670357e-07 0 0)
(1.3255680927 -0.542743954929 0 -1.1605302684e-07 0 0)
(1.32556803168 -0.542744178772 0 -2.38022047985e-08 0 0)
(1.32556769795 -0.54274412839 0 -5.34545047311e-09 0 0)
(1.3255674687 -0.542744064246 0 -8.06279903349e-10 0 0)
(1.3255672499 -0.542744023458 0 1.43015119893e-08 0 0)
(1.32556704204 -0.542744003414 0 3.4785054501e-08 0 0)
(1.32556686319 -0.542744001355 0 5.91941944128e-08 0 0)
(1.32556673498 -0.542744019013 0 8.38077119346e-08 0 0)
(1.32556664833 -0.542744048512 0 1.08333162311e-07 0 0)
(1.3255666695 -0.54274410289 0 1.33431767175e-07 0 0)
(1.32556675562 -0.542744159221 0 1.49216570856e-07 0 0)
(1.32556690965 -0.542744164795 0 1.21905548776e-07 0 0)
(1.32556712359 -0.542744103707 0 4.33923167642e-08 0 0)
(1.32556739925 -0.542743916884 0 -1.19389552588e-07 0 0)
(0.531935285788 -0.424568364406 0 0.0475421174959 0 0)
(1.34523054284 -0.549078775353 0 -0.0100928679399 0 0)
(1.49360444364 -0.576819552243 0 -0.00340760386048 0 0)
(1.62946400502 -0.602993207795 0 -0.00057413236879 0 0)
(1.59715084787 -0.595511009818 0 7.62443045728e-05 0 0)
(1.62880406292 -0.602001467764 0 -0.000233217564976 0 0)
(1.6080801049 -0.597464977684 0 2.86007575748e-05 0 0)
(1.62382092137 -0.600914230332 0 -8.06824319734e-05 0 0)
(1.61276346735 -0.59850656794 0 4.15523383636e-05 0 0)
(1.62073886641 -0.600231567624 0 -4.48795270875e-05 0 0)
(1.61515973254 -0.599040535056 0 3.11896459309e-05 0 0)
(1.61906710843 -0.59986366324 0 -2.74667209954e-05 0 0)
(1.61638196766 -0.599309525024 0 2.07313810411e-05 0 0)
(1.61821386976 -0.599678808942 0 -1.69018390543e-05 0 0)
(1.61698341605 -0.599438502351 0 1.28853204631e-05 0 0)
(1.61780016643 -0.599592047727 0 -1.00969042275e-05 0 0)
(1.61726542139 -0.599496352692 0 7.55203354926e-06 0 0)
(1.61760959518 -0.599554395036 0 -5.68851784112e-06 0 0)
(1.61739065556 -0.599520339481 0 4.22246812747e-06 0 0)
(1.61752685683 -0.59953947895 0 -3.02203625446e-06 0 0)
(1.6174422385 -0.599528759258 0 2.03664459548e-06 0 0)
(1.61749258032 -0.599534178976 0 -1.51360373414e-06 0 0)
(1.61746142645 -0.599531331255 0 8.95686309623e-07 0 0)
(1.6174781615 -0.599532372427 0 -6.84469520789e-07 0 0)
(1.61746709649 -0.599531711311 0 3.25901239228e-07 0 0)
(1.61747177226 -0.599531635075 0 -3.18216312475e-07 0 0)
(1.61746799831 -0.599531584123 0 1.01851491003e-07 0 0)
(1.6174690629 -0.599531409519 0 -1.38778355555e-07 0 0)
(1.61746754011 -0.599531333104 0 -7.96139695817e-09 0 0)
(1.61746715018 -0.599531134382 0 -6.89216478443e-08 0 0)
(1.61746674823 -0.599531022029 0 -1.1626932747e-07 0 0)
(1.61746630354 -0.599531009746 0 -9.04726512926e-08 0 0)
(1.61746632592 -0.599531219761 0 1.65349298142e-08 0 0)
(1.61746653685 -0.599530993345 0 -1.6007993194e-07 0 0)
(1.61746555311 -0.599530313226 0 -4.13002062103e-07 0 0)
(1.61746426802 -0.599530171472 0 -3.4298134849e-07 0 0)
(1.61746289863 -0.599530233923 0 -1.80721595869e-07 0 0)
(1.61746292308 -0.599530513612 0 -6.44668866004e-08 0 0)
(1.61746259734 -0.599530459804 0 -4.37941050053e-08 0 0)
(1.61746223497 -0.599530372902 0 -3.22653344224e-08 0 0)
(1.6174618586 -0.599530324789 0 -7.36252903152e-09 0 0)
(1.61746149305 -0.599530293735 0 1.74019272492e-08 0 0)
(1.617461214 -0.599530300895 0 5.1717433898e-08 0 0)
(1.61746103712 -0.599530336896 0 8.7264996348e-08 0 0)
(1.61746098611 -0.599530393927 0 1.21504896616e-07 0 0)
(1.61746100959 -0.599530466452 0 1.61832881104e-07 0 0)
(1.61746113703 -0.599530579197 0 2.06064282091e-07 0 0)
(1.61746134943 -0.599530609601 0 1.91762854478e-07 0 0)
(1.61746169688 -0.59953056231 0 1.11182536982e-07 0 0)
(1.61746220283 -0.599530350731 0 -7.81918533285e-08 0 0)
(0.629791670666 -0.48514084591 0 0.0743771662594 0 0)
(1.64090971411 -0.614235103228 0 -0.00341937288329 0 0)
(1.78150571359 -0.62979506938 0 -0.00246480668651 0 0)
(1.93130799481 -0.656198151211 0 -0.000428692684204 0 0)
(1.88249911901 -0.646286364848 0 0.000121183808872 0 0)
(1.9222086412 -0.653933424677 0 -0.000220515335886 0 0)
(1.89472332386 -0.64847751771 0 3.05945733414e-05 0 0)
(1.91532845025 -0.652648164105 0 -7.7579024702e-05 0 0)
(1.90063935371 -0.64970310368 0 4.12481819662e-05 0 0)
(1.91128025926 -0.65183594879 0 -4.42710167389e-05 0 0)
(1.90377066587 -0.650344737143 0 3.11662846147e-05 0 0)
(1.90906926573 -0.651389160054 0 -2.76430736483e-05 0 0)
(1.90539826314 -0.650675558098 0 2.10472735764e-05 0 0)
(1.90792289407 -0.651158833062 0 -1.73564200823e-05 0 0)
(1.90621343906 -0.65083866623 0 1.33246430009e-05 0 0)
(1.90735702598 -0.651047251439 0 -1.0598316923e-05 0 0)
(1.90660260892 -0.650914315473 0 7.96598726805e-06 0 0)
(1.90709160734 -0.650996938376 0 -6.11175188485e-06 0 0)
(1.90677802746 -0.650946714871 0 4.44149343373e-06 0 0)
(1.90697437488 -0.650976130419 0 -3.3120275069e-06 0 0)
(1.90685274093 -0.65095950024 0 2.32496057653e-06 0 0)
(1.90692611297 -0.650968462447 0 -1.68620735045e-06 0 0)
(1.90688082975 -0.650963404628 0 9.98963384233e-07 0 0)
(1.90690541293 -0.650965563074 0 -8.11727779179e-07 0 0)
(1.90688949371 -0.650964243727 0 3.46557354529e-07 0 0)
(1.90689662953 -0.650964474815 0 -4.04223432212e-07 0 0)
(1.90689127393 -0.650964277504 0 1.00308038965e-07 0 0)
(1.90689312586 -0.650964194242 0 -1.80608960889e-07 0 0)
(1.90689128599 -0.650964106429 0 -3.3272297257e-08 0 0)
(1.90689100588 -0.650963909319 0 -1.02084532436e-07 0 0)
(1.90689060048 -0.65096382699 0 -1.21823825996e-07 0 0)
(1.90689012227 -0.650963813012 0 -1.1595994153e-07 0 0)
(1.90688996176 -0.650964060277 0 3.03354298954e-08 0 0)
(1.90689018586 -0.650963790273 0 -1.55265717039e-07 0 0)
(1.90688919692 -0.650962946349 0 -5.30900848427e-07 0 0)
(1.90688758378 -0.650962750164 0 -4.69567017931e-07 0 0)
(1.90688638815 -0.650962934646 0 -2.62572751131e-07 0 0)
(1.90688576294 -0.650963151222 0 -9.37212808208e-08 0 0)
(1.90688508375 -0.650963064771 0 -6.43204400068e-08 0 0)
(1.90688452286 -0.650962982787 0 -4.78957201963e-08 0 0)
(1.90688406315 -0.650962944161 0 -2.40258362163e-08 0 0)
(1.90688368804 -0.650962937204 0 4.40698192215e-09 0 0)
(1.90688346443 -0.650962980488 0 4.63314807607e-08 0 0)
(1.906883349 -0.650963052259 0 9.25562397441e-08 0 0)
(1.90688335491 -0.650963132093 0 1.33591249284e-07 0 0)
(1.90688329339 -0.650963200061 0 1.78448919276e-07 0 0)
(1.90688340862 -0.650963359919 0 2.53278596527e-07 0 0)
(1.90688360413 -0.650963443989 0 2.71410311981e-07 0 0)
(1.90688397996 -0.650963395921 0 1.92682934555e-07 0 0)
(1.90688455364 -0.650963127517 0 -2.78171299172e-08 0 0)
(0.734036856902 -0.546314462912 0 0.101181546427 0 0)
(1.94882900353 -0.675135732479 0 0.00206211585289 0 0)
(2.06454182909 -0.678164436678 0 -0.00147830537713 0 0)
(2.22743054282 -0.704472123244 0 -0.000326746792522 0 0)
(2.15909409761 -0.691868083079 0 7.49291425074e-05 0 0)
(2.20899773223 -0.700998352314 0 -0.000208353195367 0 0)
(2.17395604482 -0.69459499385 0 2.43472474669e-05 0 0)
(2.20043270083 -0.699562090417 0 -6.8334479009e-05 0 0)
(2.18145050612 -0.696025032441 0 3.62670448101e-05 0 0)
(2.19531740198 -0.698614049715 0 -3.95052058931e-05 0 0)
(2.18545754563 -0.696782048521 0 2.80518501861e-05 0 0)
(2.1924718948 -0.698080983093 0 -2.51709447325e-05 0 0)
(2.18757092528 -0.69718063636 0 1.93863891378e-05 0 0)
(2.19097008813 -0.697799480525 0 -1.61703661082e-05 0 0)
(2.18864854806 -0.697382529195 0 1.25727365834e-05 0 0)
(2.1902153482 -0.697659208124 0 -1.01318130059e-05 0 0)
(2.18917298865 -0.697479221532 0 7.6949676771e-06 0 0)
(2.18985460658 -0.697593738386 0 -5.99022781041e-06 0 0)
(2.18941454937 -0.697522439902 0 4.4153240868e-06 0 0)
(2.18969277035 -0.697565723636 0 -3.24836672045e-06 0 0)
(2.18951909598 -0.697540201693 0 2.36433119142e-06 0 0)
(2.18962413653 -0.697554269764 0 -1.83569322395e-06 0 0)
(2.18955910605 -0.697546040146 0 9.78157256693e-07 0 0)
(2.18959521532 -0.69755010333 0 -9.10824602637e-07 0 0)
(2.18957249455 -0.697547733564 0 3.23107711707e-07 0 0)
(2.18958336812 -0.697548542095 0 -4.84780686745e-07 0 0)
(2.18957569513 -0.69754805121 0 8.16607423997e-08 0 0)
(2.18957858475 -0.697548133235 0 -2.1372295105e-07 0 0)
(2.18957619084 -0.697547972578 0 -6.49535758241e-08 0 0)
(2.18957586979 -0.697547747108 0 -1.486202035e-07 0 0)
(2.18957502097 -0.697547579039 0 -1.63592965409e-07 0 0)
(2.18957485486 -0.697547611096 0 -1.73883413541e-07 0 0)
(2.18957444129 -0.697547957162 0 4.59628029643e-08 0 0)
(2.18957487104 -0.697547731519 0 -1.21441777447e-07 0 0)
(2.18957434312 -0.697546743343 0 -6.54338455428e-07 0 0)
(2.1895729312 -0.697546512119 0 -6.26126622524e-07 0 0)
(2.18957106557 -0.697546622329 0 -3.93125673493e-07 0 0)
(2.18956996624 -0.697546877958 0 -1.46210973399e-07 0 0)
(2.18956910084 -0.697546862034 0 -7.9205136646e-08 0 0)
(2.18956837286 -0.697546783585 0 -5.92911776963e-08 0 0)
(2.18956789252 -0.697546769758 0 -3.27117129767e-08 0 0)
(2.18956752581 -0.697546775638 0 -3.95507815105e-09 0 0)
(2.18956739666 -0.697546850292 0 4.15190872197e-08 0 0)
(2.18956728916 -0.69754693833 0 9.53214788461e-08 0 0)
(2.18956723446 -0.697547010909 0 1.37710989999e-07 0 0)
(2.18956708882 -0.697547074682 0 1.87106084991e-07 0 0)
(2.18956685989 -0.697547214925 0 2.7985953296e-07 0 0)
(2.18956697168 -0.697547386937 0 3.51402319489e-07 0 0)
(2.18956722263 -0.697547334597 0 2.89266507138e-07 0 0)
(2.18956753816 -0.697546969733 0 4.19403035985e-08 0 0)
(0.843179477826 -0.607931490429 0 0.128252821108 0 0)
(2.27484205893 -0.732717177201 0 0.00601303835099 0 0)
(2.33767926569 -0.721567637863 0 -0.000669061225434 0 0)
(2.51126014095 -0.747814410717 0 -0.000356004715173 0 0)
(2.42444350925 -0.733167366013 0 7.02966382247e-05 0 0)
(2.48664556781 -0.743780248524 0 -0.000169076592849 0 0)
(2.44291340052 -0.736313306501 0 1.54443957131e-05 0 0)
(2.4761949868 -0.742119622113 0 -5.20764132561e-05 0 0)
(2.45214180137 -0.737933453905 0 2.68784224758e-05 0 0)
(2.46983010578 -0.741022131547 0 -3.06397442651e-05 0 0)
(2.45714432855 -0.738810095654 0 2.17959663907e-05 0 0)
(2.4662394041 -0.740395925538 0 -2.00684856857e-05 0 0)
(2.45982786935 -0.739281843662 0 1.56538606059e-05 0 0)
(2.46431328501 -0.740058225429 0 -1.33240071549e-05 0 0)
(2.46122173529 -0.739526877218 0 1.05210650822e-05 0 0)
(2.46332750439 -0.739885461662 0 -8.66518409967e-06 0 0)
(2.46191346191 -0.739647732742 0 6.64388882279e-06 0 0)