/*--------------------------------*- C++ -*----------------------------------*\
  =========                 |
  \\      /  F ield         | OpenFOAM: The Open Source CFD Toolbox
   \\    /   O peration     | Website:  https://openfoam.org
    \\  /    A nd           | Version:  9
     \\/     M anipulation  |
\*---------------------------------------------------------------------------*/
FoamFile
{
    format      ascii;
    class       volSymmTensorField;
    location    "120";
    object      theta.water;
}
// * * * * * * * * * * * * * * * * * * * * * * * * * * * * * * * * * * * * * //

dimensions      [0 0 0 0 0 0 0];

internalField   nonuniform List<symmTensor> 
12230
(
(0.304541956549 -0.0583500751964 0 -0.249345432471 0 0)
(0.168441205021 -0.0934143646329 0 -0.120942326924 0 0)
(0.0612323510796 -0.108395138118 0 -0.0409571140132 0 0)
(0.0356543253405 -0.11714783339 0 -0.0146464885976 0 0)
(0.0221263630763 -0.118757359721 0 -0.00920700134459 0 0)
(0.023464094225 -0.120263465038 0 -0.0074782763375 0 0)
(0.0211781903385 -0.119996502674 0 -0.00716894709419 0 0)
(0.0226814398043 -0.12033050073 0 -0.00728674403161 0 0)
(0.0214128172729 -0.12017871018 0 -0.00724049211551 0 0)
(0.0223409558487 -0.120300724895 0 -0.00728624870086 0 0)
(0.0216258740015 -0.120238847494 0 -0.00727280339189 0 0)
(0.0221547953233 -0.120280310312 0 -0.00728167640418 0 0)
(0.0217626534146 -0.120259933237 0 -0.00728559698345 0 0)
(0.0220475164704 -0.120271591685 0 -0.0072813744794 0 0)
(0.0218424549274 -0.120266737091 0 -0.00728862105417 0 0)
(0.0219872430442 -0.120268855671 0 -0.00728116209984 0 0)
(0.0218861528324 -0.120268584785 0 -0.00728850155789 0 0)
(0.0219553957073 -0.120268287423 0 -0.00728226725156 0 0)
(0.0219086805966 -0.120268756554 0 -0.00728748250246 0 0)
(0.0219395654888 -0.12026836198 0 -0.00728344621015 0 0)
(0.0219195910746 -0.120268690265 0 -0.00728656902005 0 0)
(0.0219321988638 -0.120268443022 0 -0.0072842629857 0 0)
(0.0219242478696 -0.120268583 0 -0.0072857568734 0 0)
(0.0219290244029 -0.120268464 0 -0.00728473491516 0 0)
(0.0219261577649 -0.120268493752 0 -0.00728536992617 0 0)
(0.0219277158465 -0.120268412757 0 -0.00728490562543 0 0)
(0.0219267525298 -0.120268412823 0 -0.0072851013004 0 0)
(0.0219272409938 -0.120268385821 0 -0.00728496885027 0 0)
(0.0219269931251 -0.120268369248 0 -0.00728504854769 0 0)
(0.0219271594589 -0.120268358487 0 -0.00728507648006 0 0)
(0.0219271103464 -0.120268361555 0 -0.00728510395354 0 0)
(0.0219270689686 -0.1202683575 0 -0.00728503386808 0 0)
(0.0219270715864 -0.120268354382 0 -0.00728504766737 0 0)
(0.0219271098944 -0.12026834548 0 -0.00728508989619 0 0)
(0.0219270440733 -0.120268335254 0 -0.0072850254269 0 0)
(0.0219268487854 -0.120268322926 0 -0.00728482094628 0 0)
(0.0219265726922 -0.120268308479 0 -0.00728454448897 0 0)
(0.0219265256941 -0.120268294857 0 -0.00728451312972 0 0)
(0.0219265657806 -0.120268277948 0 -0.00728455891718 0 0)
(0.0219266490173 -0.120268254064 0 -0.00728464705814 0 0)
(0.0219267462735 -0.120268226677 0 -0.00728475099877 0 0)
(0.0219268419429 -0.120268201792 0 -0.00728485688714 0 0)
(0.021926936134 -0.12026818274 0 -0.00728495783918 0 0)
(0.021927025289 -0.120268169773 0 -0.00728505176644 0 0)
(0.02192710782 -0.120268161504 0 -0.00728513670887 0 0)
(0.0219271846315 -0.12026815631 0 -0.00728521491748 0 0)
(0.0219272443795 -0.120268152625 0 -0.00728527487063 0 0)
(0.0219273074568 -0.120268147414 0 -0.00728533628354 0 0)
(0.021927321268 -0.120268138736 0 -0.00728535502668 0 0)
(0.0219273026036 -0.120268124089 0 -0.00728533725626 0 0)
(0.334780076694 -0.17134300966 0 -0.247198367967 0 0)
(0.246978786023 -0.263732535796 0 -0.141948861865 0 0)
(0.173906458352 -0.300181605745 0 -0.078760992937 0 0)
(0.175094817794 -0.321299651066 0 -0.0603797539692 0 0)
(0.170908399457 -0.323301259364 0 -0.0577811730809 0 0)
(0.17446746972 -0.326548646446 0 -0.0564486324121 0 0)
(0.172170311401 -0.325677428654 0 -0.056437457345 0 0)
(0.174420282702 -0.326487538825 0 -0.0563806685424 0 0)
(0.173028707955 -0.326038290217 0 -0.0564774696888 0 0)
(0.174209636688 -0.326346856056 0 -0.0563822253022 0 0)
(0.173424968261 -0.326167874715 0 -0.0564864245806 0 0)
(0.174039562053 -0.326275089223 0 -0.0563955098867 0 0)
(0.173620366596 -0.326216391116 0 -0.05647825277 0 0)
(0.173932538555 -0.326246649433 0 -0.05641058901 0 0)
(0.173719548087 -0.326232772091 0 -0.056466599582 0 0)
(0.17387197879 -0.32623760461 0 -0.0564228830427 0 0)
(0.17376944602 -0.32623714545 0 -0.0564566920106 0 0)
(0.173840334952 -0.32623558051 0 -0.0564316557132 0 0)
(0.173793647834 -0.326237363702 0 -0.0564498755891 0 0)
(0.173824694926 -0.326235667913 0 -0.0564370026286 0 0)
(0.17380493785 -0.326236972038 0 -0.0564459434511 0 0)
(0.173817436685 -0.326235926544 0 -0.0564398692992 0 0)
(0.173809592994 -0.32623656775 0 -0.0564437009385 0 0)
(0.173814291242 -0.326236063947 0 -0.0564412263821 0 0)
(0.173811470888 -0.326236314897 0 -0.0564427259691 0 0)
(0.173812935485 -0.326236052244 0 -0.0564417475972 0 0)
(0.173811933528 -0.32623612083 0 -0.0564422005221 0 0)
(0.17381236209 -0.326236006414 0 -0.0564419037827 0 0)
(0.173812067926 -0.32623597996 0 -0.0564420394535 0 0)
(0.173812198963 -0.326235927232 0 -0.0564419995114 0 0)
(0.173812144832 -0.326235938776 0 -0.0564420412482 0 0)
(0.173812078974 -0.326235932846 0 -0.0564419519886 0 0)
(0.173812084414 -0.326235959189 0 -0.0564419599648 0 0)
(0.173812130593 -0.326235952756 0 -0.0564420005743 0 0)
(0.173812053022 -0.32623592254 0 -0.056441948378 0 0)
(0.173811822905 -0.326235893215 0 -0.056441770054 0 0)
(0.173811536014 -0.326235871164 0 -0.0564415642705 0 0)
(0.173811324427 -0.32623582956 0 -0.0564414835866 0 0)
(0.173811285958 -0.326235746188 0 -0.056441514685 0 0)
(0.173811304867 -0.326235648501 0 -0.0564415685734 0 0)
(0.17381133989 -0.326235570376 0 -0.0564416263398 0 0)
(0.173811381905 -0.326235510724 0 -0.0564416926345 0 0)
(0.173811433259 -0.326235468074 0 -0.056441762406 0 0)
(0.173811492814 -0.326235440687 0 -0.0564418351235 0 0)
(0.173811557881 -0.32623542406 0 -0.0564419069399 0 0)
(0.173811627244 -0.326235413984 0 -0.0564419792744 0 0)
(0.173811685668 -0.326235405879 0 -0.0564420385071 0 0)
(0.173811750899 -0.326235392222 0 -0.0564420959547 0 0)
(0.173811779995 -0.326235367401 0 -0.0564421356931 0 0)
(0.173811760527 -0.326235324352 0 -0.0564421249798 0 0)
(0.365555927158 -0.277974830387 0 -0.244250256076 0 0)
(0.362937048634 -0.398788877598 0 -0.178339615423 0 0)
(0.3617534014 -0.442110380848 0 -0.134977443225 0 0)
(0.384386240389 -0.465342094872 0 -0.128425522291 0 0)
(0.389151192217 -0.465731176406 0 -0.125885947705 0 0)
(0.399778646174 -0.468326691124 0 -0.126040867953 0 0)
(0.397568682411 -0.46696239059 0 -0.125390211798 0 0)
(0.400904716128 -0.467972585732 0 -0.1256721206 0 0)
(0.399329426315 -0.467305359443 0 -0.125493477939 0 0)
(0.400865875981 -0.467710260127 0 -0.125555667251 0 0)
(0.399968282035 -0.467446318414 0 -0.125544744052 0 0)
(0.40070219698 -0.467592607159 0 -0.125518088896 0 0)
(0.400236846089 -0.467505817573 0 -0.125553639413 0 0)
(0.4005866444 -0.467547470728 0 -0.125514631158 0 0)
(0.400358741235 -0.467526783709 0 -0.125552126569 0 0)
(0.400521414851 -0.467532891351 0 -0.125519349361 0 0)
(0.400415223883 -0.467532420671 0 -0.12554614655 0 0)
(0.400488249805 -0.467529502455 0 -0.125525201346 0 0)
(0.400441124674 -0.467532619865 0 -0.125540925495 0 0)
(0.400472315179 -0.467529483658 0 -0.125529487657 0 0)
(0.400452700096 -0.467531843353 0 -0.125537525147 0 0)
(0.400465035086 -0.46752991231 0 -0.125531946925 0 0)
(0.400457273714 -0.467531153546 0 -0.12553544786 0 0)
(0.400461867728 -0.467530217359 0 -0.125533108252 0 0)
(0.400459149095 -0.467530792091 0 -0.125534536771 0 0)
(0.400460614021 -0.467530416337 0 -0.125533630206 0 0)
(0.400459604399 -0.467530621245 0 -0.125534070417 0 0)
(0.400459980566 -0.46753042437 0 -0.125533777698 0 0)
(0.400459615072 -0.467530425129 0 -0.125533874357 0 0)
(0.400459656753 -0.467530346026 0 -0.125533797991 0 0)
(0.400459555232 -0.467530332834 0 -0.125533830032 0 0)
(0.400459377316 -0.46753030786 0 -0.125533712913 0 0)
(0.400459325867 -0.46753035152 0 -0.125533716039 0 0)
(0.400459346892 -0.467530320834 0 -0.125533772216 0 0)
(0.400459220687 -0.46753020448 0 -0.125533714616 0 0)
(0.40045891427 -0.467530110078 0 -0.125533541877 0 0)
(0.400458552788 -0.467530081844 0 -0.125533355353 0 0)
(0.4004583032 -0.46753004699 0 -0.125533225166 0 0)
(0.400458144717 -0.467529964184 0 -0.125533225308 0 0)
(0.400458021703 -0.467529855511 0 -0.125533235786 0 0)
(0.400457926663 -0.467529779262 0 -0.125533251863 0 0)
(0.40045788816 -0.467529728273 0 -0.125533277828 0 0)
(0.400457891302 -0.467529693486 0 -0.125533313976 0 0)
(0.400457909097 -0.467529672862 0 -0.125533362078 0 0)
(0.400457946567 -0.467529663355 0 -0.125533417235 0 0)
(0.400458008088 -0.467529658235 0 -0.125533480793 0 0)
(0.400458068774 -0.467529649624 0 -0.125533543056 0 0)
(0.400458140381 -0.467529630376 0 -0.125533597647 0 0)
(0.400458195121 -0.467529589537 0 -0.125533663006 0 0)
(0.40045818 -0.467529515462 0 -0.125533665644 0 0)
(0.372894732362 -0.380210199874 0 -0.235097062245 0 0)
(0.549835504359 -0.497563078058 0 -0.218809200135 0 0)
(0.577665138113 -0.537536473284 0 -0.195150915699 0 0)
(0.626017520572 -0.556265284612 0 -0.196033683437 0 0)
(0.630040218885 -0.554649923762 0 -0.193558518959 0 0)
(0.642356342833 -0.556725181189 0 -0.194860061313 0 0)
(0.639011573219 -0.554921234243 0 -0.193183555614 0 0)
(0.643064398195 -0.555968290805 0 -0.194052530345 0 0)
(0.640917458787 -0.555164623856 0 -0.193376039214 0 0)
(0.642771187322 -0.555625045994 0 -0.193769059314 0 0)
(0.641621475503 -0.555308348029 0 -0.193502187536 0 0)
(0.642492977923 -0.555483624736 0 -0.193654512656 0 0)
(0.641924311252 -0.555376078061 0 -0.193562294837 0 0)
(0.642329890497 -0.555429512629 0 -0.193610157982 0 0)
(0.64206252571 -0.555402288859 0 -0.193585960277 0 0)
(0.642246153635 -0.555411613194 0 -0.193595178936 0 0)
(0.642125745061 -0.555410241547 0 -0.193593493097 0 0)
(0.642205958967 -0.555407049825 0 -0.193591146154 0 0)
(0.642154013347 -0.555410813916 0 -0.193594109723 0 0)
(0.642187554949 -0.555407034288 0 -0.193591165881 0 0)
(0.642166361983 -0.555410080933 0 -0.193593772276 0 0)
(0.642179419237 -0.555407606254 0 -0.193591661579 0 0)
(0.642171115666 -0.555409310095 0 -0.193593018571 0 0)
(0.642175885941 -0.555408075726 0 -0.193591945476 0 0)
(0.642172983507 -0.555408866953 0 -0.193592606303 0 0)
(0.642174568368 -0.555408387419 0 -0.193592179844 0 0)
(0.642173532018 -0.555408694383 0 -0.193592400852 0 0)
(0.642173952546 -0.555408461742 0 -0.193592244183 0 0)
(0.642173582006 -0.555408533157 0 -0.193592275979 0 0)
(0.642173583945 -0.555408455118 0 -0.193592214112 0 0)
(0.642173430157 -0.555408420642 0 -0.193592247812 0 0)
(0.642173093435 -0.555408381518 0 -0.193592124771 0 0)
(0.642172809944 -0.55540840605 0 -0.193592070351 0 0)
(0.642172690606 -0.555408302666 0 -0.193592092037 0 0)
(0.642172378148 -0.555408016147 0 -0.193591983751 0 0)
(0.642171810105 -0.555407853999 0 -0.193591757403 0 0)
(0.642171305665 -0.555407876321 0 -0.19359156846 0 0)
(0.642171021207 -0.555407930003 0 -0.193591438826 0 0)
(0.64217089135 -0.55540792149 0 -0.193591441867 0 0)
(0.642170785918 -0.555407881199 0 -0.193591453354 0 0)
(0.64217069202 -0.555407837865 0 -0.193591453967 0 0)
(0.642170621769 -0.555407809078 0 -0.193591457475 0 0)
(0.64217058782 -0.555407790584 0 -0.193591467336 0 0)
(0.642170593069 -0.555407780913 0 -0.193591489201 0 0)
(0.642170616907 -0.555407782764 0 -0.193591525122 0 0)
(0.642170665957 -0.555407783278 0 -0.193591577473 0 0)
(0.642170735505 -0.555407777312 0 -0.193591641302 0 0)
(0.642170812642 -0.555407754205 0 -0.193591700358 0 0)
(0.642170909959 -0.555407695932 0 -0.193591778568 0 0)
(0.642170907906 -0.555407582968 0 -0.193591833583 0 0)
(0.420137486162 -0.473589686748 0 -0.215673897823 0 0)
(0.740560871718 -0.566619096242 0 -0.26643085175 0 0)
(0.793723881206 -0.596802765919 0 -0.253019878019 0 0)
(0.857075116029 -0.609798375874 0 -0.255654657447 0 0)
(0.858105840192 -0.60691800265 0 -0.251776305279 0 0)
(0.87089078297 -0.608746058207 0 -0.254328293369 0 0)
(0.86641872074 -0.606735328904 0 -0.251782956577 0 0)
(0.871350739611 -0.607798632269 0 -0.253210193434 0 0)
(0.868576425577 -0.606926587221 0 -0.252080054399 0 0)
(0.870842434939 -0.607427959015 0 -0.2527909121 0 0)
(0.869392482673 -0.607075976926 0 -0.252285078741 0 0)
(0.870455419364 -0.607277658518 0 -0.252606986853 0 0)
(0.869752703988 -0.607152175155 0 -0.25239210613 0 0)
(0.870242645377 -0.607218395702 0 -0.252526195442 0 0)
(0.869918581318 -0.607183404707 0 -0.25244140015 0 0)
(0.870137312193 -0.607197608057 0 -0.252492470455 0 0)
(0.869994272807 -0.607194026132 0 -0.252461685132 0 0)
(0.870087964619 -0.607191702357 0 -0.252479305433 0 0)
(0.870027311546 -0.607195150445 0 -0.252469276858 0 0)
(0.870065920858 -0.607191339961 0 -0.252474662625 0 0)
(0.870041657267 -0.607194717536 0 -0.252471840113 0 0)
(0.870056584986 -0.607191985288 0 -0.252473195433 0 0)
(0.870047216879 -0.607194027733 0 -0.252472444206 0 0)
(0.870052539499 -0.607192595748 0 -0.252472650664 0 0)
(0.870049133566 -0.607193521724 0 -0.252472514703 0 0)
(0.870050794864 -0.607192880441 0 -0.252472487003 0 0)
(0.870049577062 -0.60719325371 0 -0.252472442541 0 0)
(0.870050011065 -0.607192981782 0 -0.2524724064 0 0)
(0.870049598679 -0.607193105658 0 -0.252472377126 0 0)
(0.87004958102 -0.607193018873 0 -0.252472342791 0 0)
(0.870049388763 -0.607192961509 0 -0.252472386007 0 0)
(0.87004897061 -0.60719292448 0 -0.252472265013 0 0)
(0.870048558181 -0.607192952871 0 -0.2524721616 0 0)
(0.870048358282 -0.607192799214 0 -0.252472185484 0 0)
(0.870047908369 -0.607192406368 0 -0.252472060616 0 0)
(0.870047188573 -0.60719236693 0 -0.252471823297 0 0)
(0.870046633192 -0.607192443973 0 -0.252471649069 0 0)
(0.87004631789 -0.607192577659 0 -0.252471518633 0 0)
(0.870046208738 -0.607192643951 0 -0.252471530632 0 0)
(0.870046140324 -0.607192619875 0 -0.252471540833 0 0)
(0.870046056221 -0.60719259269 0 -0.252471532083 0 0)
(0.870045983308 -0.607192577427 0 -0.252471516949 0 0)
(0.870045922502 -0.607192572104 0 -0.252471508966 0 0)
(0.87004591259 -0.607192577036 0 -0.252471513397 0 0)
(0.870045925079 -0.607192589047 0 -0.252471526243 0 0)
(0.870045961983 -0.607192601839 0 -0.25247155612 0 0)
(0.870046033852 -0.607192597876 0 -0.252471610518 0 0)
(0.870046123828 -0.607192572558 0 -0.252471681656 0 0)
(0.870046270198 -0.607192497176 0 -0.252471767657 0 0)
(0.870046317545 -0.607192338447 0 -0.252471885712 0 0)
(0.477553153058 -0.558080003649 0 -0.19952882708 0 0)
(0.920855510568 -0.613323204904 0 -0.314904901025 0 0)
(0.996166260808 -0.632102638261 0 -0.301705881913 0 0)
(1.06668094491 -0.639935050983 0 -0.305057806045 0 0)
(1.06304324968 -0.63628336536 0 -0.29960796859 0 0)
(1.07645601404 -0.637965082552 0 -0.303140584103 0 0)
(1.07029471381 -0.635974628686 0 -0.299927284316 0 0)
(1.07597787155 -0.637081230326 0 -0.301846916956 0 0)
(1.07241811802 -0.636199259559 0 -0.300345469724 0 0)
(1.07512051345 -0.636739461225 0 -0.301337940482 0 0)
(1.07330492895 -0.636366812323 0 -0.300627373448 0 0)
(1.07459227988 -0.636593864855 0 -0.301101075501 0 0)
(1.07372168273 -0.63645235316 0 -0.300778061207 0 0)
(1.07431770093 -0.636532568861 0 -0.300989912334 0 0)
(1.07391939064 -0.636488788349 0 -0.300850698829 0 0)
(1.07418497637 -0.636509402229 0 -0.30093974987 0 0)
(1.07401045835 -0.636501584562 0 -0.300883083484 0 0)
(1.07412359463 -0.636502249844 0 -0.300918196291 0 0)
(1.07405072783 -0.636504755869 0 -0.300896560207 0 0)
(1.0740968625 -0.636501312733 0 -0.300909554261 0 0)
(1.07406799178 -0.636504563348 0 -0.300901865887 0 0)
(1.07408568716 -0.636501739548 0 -0.300906358472 0 0)
(1.07407463571 -0.636503926959 0 -0.300903709378 0 0)
(1.07408077769 -0.636502338519 0 -0.300905064698 0 0)
(1.0740766418 -0.636503366227 0 -0.300904171796 0 0)
(1.07407841559 -0.636502590863 0 -0.300904503594 0 0)
(1.0740768865 -0.636503037773 0 -0.300904228254 0 0)
(1.0740772541 -0.636502716979 0 -0.300904289787 0 0)
(1.07407666276 -0.636502842941 0 -0.300904160113 0 0)
(1.07407653276 -0.636502724691 0 -0.300904107841 0 0)
(1.07407626513 -0.636502654767 0 -0.300904144511 0 0)
(1.07407576564 -0.636502651977 0 -0.300904038484 0 0)
(1.07407546089 -0.63650273527 0 -0.300903986475 0 0)
(1.07407543098 -0.636502573049 0 -0.300904097588 0 0)
(1.07407506993 -0.636502169394 0 -0.30090399407 0 0)
(1.07407438745 -0.636502193449 0 -0.300903771808 0 0)
(1.07407386116 -0.636502361059 0 -0.300903591214 0 0)
(1.07407347379 -0.636502531221 0 -0.300903511039 0 0)
(1.07407329399 -0.636502623936 0 -0.300903486948 0 0)
(1.0740731852 -0.63650259677 0 -0.300903478228 0 0)
(1.07407307796 -0.636502575536 0 -0.300903454884 0 0)
(1.07407298835 -0.636502578532 0 -0.300903424752 0 0)
(1.07407293028 -0.636502590869 0 -0.300903393297 0 0)
(1.07407289437 -0.636502612006 0 -0.300903379925 0 0)
(1.07407289777 -0.636502640175 0 -0.300903380183 0 0)
(1.0740729192 -0.636502679247 0 -0.300903391417 0 0)
(1.0740729745 -0.636502690482 0 -0.300903427148 0 0)
(1.07407307293 -0.636502669145 0 -0.300903500602 0 0)
(1.07407322559 -0.636502581055 0 -0.300903600865 0 0)
(1.07407335521 -0.636502374829 0 -0.300903761729 0 0)
(0.540334526017 -0.633207988288 0 -0.191864820922 0 0)
(1.09523844793 -0.643483470051 0 -0.352213399975 0 0)
(1.17935835234 -0.651127591447 0 -0.34094615057 0 0)
(1.25163798779 -0.655474595807 0 -0.344988575677 0 0)
(1.24253468587 -0.651768362461 0 -0.338123611647 0 0)
(1.25686435952 -0.653432590924 0 -0.342515444476 0 0)
(1.24884554578 -0.651607331 0 -0.338812305246 0 0)
(1.25536163919 -0.65275379759 0 -0.341188214909 0 0)
(1.25096289385 -0.651894865341 0 -0.339372570623 0 0)
(1.25417706604 -0.652461392359 0 -0.340622697784 0 0)
(1.25195592317 -0.652076720286 0 -0.339727147566 0 0)
(1.25351358274 -0.652324209151 0 -0.340342364528 0 0)
(1.25244755006 -0.652168223361 0 -0.339917397074 0 0)
(1.25317520677 -0.652261812262 0 -0.340203866306 0 0)
(1.2526863435 -0.652208548734 0 -0.34001183268 0 0)
(1.25301182211 -0.652236295546 0 -0.340138147297 0 0)
(1.25279775719 -0.652223822339 0 -0.34005581386 0 0)
(1.25293631118 -0.652227482128 0 -0.340108388458 0 0)
(1.25284708343 -0.652228227233 0 -0.340075063842 0 0)
(1.25290340196 -0.652225858173 0 -0.340095757025 0 0)
(1.25286822316 -0.652228649167 0 -0.340083114111 0 0)
(1.25288961662 -0.652225962907 0 -0.340090741117 0 0)
(1.25287621221 -0.652228117326 0 -0.340086128428 0 0)
(1.25288356046 -0.652226468638 0 -0.340088659591 0 0)
(1.2528785674 -0.652227560356 0 -0.34008705291 0 0)
(1.25288067675 -0.652226729782 0 -0.340087781699 0 0)
(1.25287885199 -0.652227255177 0 -0.340087264249 0 0)
(1.25287928354 -0.652226909325 0 -0.340087438913 0 0)
(1.25287852561 -0.652227054893 0 -0.340087207475 0 0)
(1.25287832208 -0.652226912255 0 -0.340087165173 0 0)
(1.2528780439 -0.652226863401 0 -0.34008723927 0 0)
(1.25287765943 -0.652226907998 0 -0.340087168494 0 0)
(1.25287756149 -0.652227077755 0 -0.340087155586 0 0)
(1.25287770288 -0.652226880943 0 -0.340087334453 0 0)
(1.25287739247 -0.652226412356 0 -0.340087255079 0 0)
(1.25287676869 -0.652226466081 0 -0.340087027177 0 0)
(1.25287604467 -0.652226698147 0 -0.340086842988 0 0)
(1.25287589131 -0.652227005747 0 -0.340086906713 0 0)
(1.25287569192 -0.652227006751 0 -0.340086831464 0 0)
(1.25287557172 -0.652226966528 0 -0.340086760653 0 0)
(1.25287544749 -0.652226952519 0 -0.340086689686 0 0)
(1.25287531956 -0.652226964542 0 -0.340086631682 0 0)
(1.25287520216 -0.652226994203 0 -0.340086583282 0 0)
(1.25287510806 -0.65222704063 0 -0.340086555483 0 0)
(1.25287503584 -0.65222709418 0 -0.34008653828 0 0)
(1.25287502345 -0.652227155779 0 -0.340086536696 0 0)
(1.25287505314 -0.65222720927 0 -0.340086556015 0 0)
(1.25287515041 -0.652227195204 0 -0.340086624834 0 0)
(1.25287531765 -0.652227097089 0 -0.340086746542 0 0)
(1.25287558409 -0.652226845065 0 -0.340086937142 0 0)
(0.60705581417 -0.697572690386 0 -0.188809996686 0 0)
(1.26050471445 -0.665129857935 0 -0.381274403892 0 0)
(1.34395019321 -0.661225561735 0 -0.372119638742 0 0)
(1.41352519574 -0.662343941949 0 -0.376952493847 0 0)
(1.39836405881 -0.659039728709 0 -0.369085402513 0 0)
(1.4137267278 -0.660743799397 0 -0.374269381462 0 0)
(1.40386063007 -0.659144085122 0 -0.370197561286 0 0)
(1.41138042267 -0.66029110071 0 -0.372980345483 0 0)
(1.40610552731 -0.65947125393 0 -0.370890416738 0 0)
(1.40991964061 -0.660043595893 0 -0.372372377571 0 0)
(1.4072481326 -0.659654140337 0 -0.371306353161 0 0)
(1.40912466808 -0.659914626758 0 -0.372053719802 0 0)
(1.40783106746 -0.659746545726 0 -0.371531178961 0 0)
(1.4087174323 -0.659851824898 0 -0.371889973424 0 0)
(1.40811897226 -0.659789068074 0 -0.371645717497 0 0)
(1.40851869467 -0.65982429559 0 -0.371809316674 0 0)
(1.40825491082 -0.659806345381 0 -0.371700880514 0 0)
(1.40842613475 -0.659814039741 0 -0.371771432952 0 0)
(1.40831598135 -0.659812236015 0 -0.371725977914 0 0)
(1.40838535059 -0.659811137241 0 -0.371754685494 0 0)
(1.40834173785 -0.659813122639 0 -0.371736789922 0 0)
(1.40836807088 -0.659810930802 0 -0.371747762488 0 0)
(1.4083515518 -0.659812878128 0 -0.371741053045 0 0)
(1.40836062455 -0.659811327784 0 -0.371744862992 0 0)
(1.40835460447 -0.659812422166 0 -0.371742508619 0 0)
(1.40835729104 -0.659811599878 0 -0.371743684703 0 0)
(1.40835516141 -0.659812175012 0 -0.371742901645 0 0)
(1.40835583678 -0.659811826929 0 -0.371743242491 0 0)
(1.40835499952 -0.659812006381 0 -0.371742971381 0 0)
(1.40835485949 -0.659811859147 0 -0.371742940747 0 0)
(1.40835467007 -0.65981183401 0 -0.371743005248 0 0)
(1.40835441777 -0.659811910888 0 -0.371742985819 0 0)
(1.40835434232 -0.659812135009 0 -0.371742948508 0 0)
(1.40835455071 -0.659811881806 0 -0.371743154987 0 0)
(1.4083542732 -0.659811320842 0 -0.371743134252 0 0)
(1.40835359867 -0.659811387914 0 -0.371742920827 0 0)
(1.40835278562 -0.659811710636 0 -0.371742733878 0 0)
(1.40835267557 -0.659812031262 0 -0.371742777042 0 0)
(1.40835251504 -0.659812019427 0 -0.371742683685 0 0)
(1.40835234772 -0.659811974451 0 -0.371742575816 0 0)
(1.40835215489 -0.659811980746 0 -0.371742487263 0 0)
(1.40835195898 -0.659812009804 0 -0.371742424682 0 0)
(1.4083517966 -0.659812066249 0 -0.371742373156 0 0)
(1.40835167954 -0.659812138068 0 -0.371742343422 0 0)
(1.40835162623 -0.659812209699 0 -0.371742326799 0 0)
(1.4083516099 -0.659812279955 0 -0.371742298878 0 0)
(1.40835163525 -0.659812380681 0 -0.37174230139 0 0)
(1.40835174202 -0.65981238242 0 -0.371742357298 0 0)
(1.4083519565 -0.659812285722 0 -0.371742490995 0 0)
(1.40835232882 -0.659811988338 0 -0.371742705413 0 0)
(0.676912043431 -0.755769202139 0 -0.188331896307 0 0)
(1.41367543767 -0.678820265098 0 -0.403550411062 0 0)
(1.48611815523 -0.664683045368 0 -0.396676766438 0 0)
(1.55340917576 -0.664481484797 0 -0.402712248887 0 0)
(1.53285753731 -0.661632898715 0 -0.394218813896 0 0)
(1.54982985158 -0.663275546898 0 -0.400063214248 0 0)
(1.5381952677 -0.66189373374 0 -0.395696364403 0 0)
(1.54690858818 -0.66297689474 0 -0.398810424865 0 0)
(1.54070006103 -0.662210061785 0 -0.396485065568 0 0)
(1.54520201339 -0.662763963498 0 -0.398165829166 0 0)
(1.54202337861 -0.662380386648 0 -0.396947807224 0 0)
(1.54426980143 -0.662644530313 0 -0.397814443322 0 0)
(1.54271071738 -0.662469071645 0 -0.397201517238 0 0)
(1.54378571803 -0.662583099271 0 -0.397628420683 0 0)
(1.54305550655 -0.662512029311 0 -0.39733398216 0 0)
(1.54354605212 -0.662554429984 0 -0.397534056884 0 0)
(1.54322080407 -0.662530776784 0 -0.397399643901 0 0)
(1.54343291517 -0.662542769616 0 -0.397488356651 0 0)
(1.54329589105 -0.662537731633 0 -0.397430467206 0 0)
(1.54338242946 -0.662538950733 0 -0.397467530672 0 0)
(1.54332823021 -0.66253976373 0 -0.397444159893 0 0)
(1.54336131204 -0.662538261012 0 -0.397458715418 0 0)
(1.54334071187 -0.662539685766 0 -0.397449747615 0 0)
(1.54335210456 -0.662538370644 0 -0.39745493039 0 0)
(1.54334468714 -0.662539344452 0 -0.397451752435 0 0)
(1.54334813711 -0.662538587717 0 -0.39745342363 0 0)
(1.54334554747 -0.662539169759 0 -0.397452342112 0 0)
(1.54334649372 -0.662538841114 0 -0.397452852412 0 0)
(1.54334560907 -0.66253903408 0 -0.397452542113 0 0)
(1.54334554298 -0.662538878667 0 -0.397452524219 0 0)
(1.54334536755 -0.662538874836 0 -0.397452540681 0 0)
(1.54334512739 -0.662538962976 0 -0.397452590802 0 0)
(1.54334495538 -0.662539231144 0 -0.397452498188 0 0)
(1.54334516312 -0.662538948143 0 -0.397452682218 0 0)
(1.54334497634 -0.662538297663 0 -0.397452855734 0 0)
(1.54334424348 -0.662538353117 0 -0.397452633613 0 0)
(1.54334357572 -0.662538728613 0 -0.397452424195 0 0)
(1.54334318091 -0.662539045257 0 -0.397452291433 0 0)
(1.54334287518 -0.662539060774 0 -0.39745217926 0 0)
(1.5433426255 -0.662539064679 0 -0.397452097107 0 0)
(1.54334241003 -0.662539099861 0 -0.397452038913 0 0)
(1.54334222374 -0.662539155692 0 -0.397451999116 0 0)
(1.54334209554 -0.662539235822 0 -0.397451962672 0 0)
(1.54334201026 -0.662539326658 0 -0.397451935787 0 0)
(1.54334198381 -0.662539404597 0 -0.397451916864 0 0)
(1.54334192823 -0.662539478418 0 -0.397451878225 0 0)
(1.54334192712 -0.662539615745 0 -0.397451846191 0 0)
(1.54334199191 -0.662539673596 0 -0.397451878949 0 0)
(1.5433421942 -0.662539581098 0 -0.397452009434 0 0)
(1.54334257542 -0.662539246607 0 -0.397452252241 0 0)
(0.746198794648 -0.808049487413 0 -0.189852589569 0 0)
(1.55382944559 -0.685103263559 0 -0.421679010019 0 0)
(1.60971140435 -0.665046728537 0 -0.41634578361 0 0)
(1.67504933939 -0.663692819882 0 -0.423751264337 0 0)
(1.64901936518 -0.661367466476 0 -0.414820653668 0 0)
(1.66813175337 -0.662953075346 0 -0.421174111285 0 0)
(1.65475450698 -0.661818893657 0 -0.416595105389 0 0)
(1.66483963493 -0.662777629014 0 -0.419954379984 0 0)
(1.65761678081 -0.662090520746 0 -0.417443199146 0 0)
(1.66289645188 -0.662598175639 0 -0.419282517412 0 0)
(1.65914414457 -0.662237694692 0 -0.417938342603 0 0)
(1.66181598402 -0.662492379746 0 -0.418906216508 0 0)
(1.65994821872 -0.6623180049 0 -0.418214449615 0 0)
(1.66124557432 -0.662435219861 0 -0.418702183074 0 0)
(1.66035808881 -0.662359116249 0 -0.418361882768 0 0)
(1.66095855153 -0.662406873629 0 -0.418596045769 0 0)
(1.66055787259 -0.662378316257 0 -0.418436851988 0 0)
(1.66082089054 -0.662394406163 0 -0.418543259102 0 0)
(1.66065025397 -0.66238624473 0 -0.418473047373 0 0)
(1.66075870892 -0.662389899937 0 -0.418518524359 0 0)
(1.6606905209 -0.662388935145 0 -0.418489509186 0 0)
(1.66073220012 -0.662388353785 0 -0.418507806647 0 0)
(1.66070623057 -0.662389177704 0 -0.418496468396 0 0)
(1.66072080735 -0.662388311842 0 -0.418503145291 0 0)
(1.66071156344 -0.662389067922 0 -0.418499078616 0 0)
(1.66071608637 -0.6623884494 0 -0.418501296988 0 0)
(1.66071285971 -0.662388994325 0 -0.418499873039 0 0)
(1.66071410342 -0.662388718708 0 -0.418500544253 0 0)
(1.66071309543 -0.662388901373 0 -0.418500190719 0 0)
(1.66071302791 -0.662388739354 0 -0.418500194716 0 0)
(1.66071270519 -0.662388711552 0 -0.418500138163 0 0)
(1.66071261314 -0.662388797261 0 -0.41850025882 0 0)
(1.66071231497 -0.662389167981 0 -0.418500088109 0 0)
(1.66071257824 -0.662388911459 0 -0.418500257133 0 0)
(1.66071266043 -0.662388144674 0 -0.4185007181 0 0)
(1.66071211312 -0.662388118674 0 -0.418500508165 0 0)
(1.66071124801 -0.66238847874 0 -0.418500182529 0 0)
(1.66071067592 -0.662388855298 0 -0.418499895619 0 0)
(1.66071029607 -0.662388966851 0 -0.418499787266 0 0)
(1.66070999678 -0.662389003328 0 -0.418499724588 0 0)
(1.66070978627 -0.66238906712 0 -0.418499695238 0 0)
(1.66070961927 -0.662389130433 0 -0.418499668213 0 0)
(1.66070953646 -0.662389220707 0 -0.41849964612 0 0)
(1.66070945863 -0.66238931696 0 -0.41849961089 0 0)
(1.66070941063 -0.662389390948 0 -0.418499582804 0 0)
(1.660709325 -0.662389466769 0 -0.418499531891 0 0)
(1.66070917683 -0.662389627178 0 -0.418499460842 0 0)
(1.66070916737 -0.662389773778 0 -0.418499454396 0 0)
(1.66070929405 -0.662389700944 0 -0.41849955024 0 0)
(1.66070954981 -0.662389349708 0 -0.418499808946 0 0)
(0.813658648244 -0.855076781281 0 -0.191910555022 0 0)
(1.6855679501 -0.68567711306 0 -0.437603419867 0 0)
(1.71699215219 -0.663146782102 0 -0.432034615489 0 0)
(1.77997052158 -0.661369729615 0 -0.441311747607 0 0)
(1.7496934815 -0.659781048644 0 -0.432012326521 0 0)
(1.77144828472 -0.661002751912 0 -0.43860142686 0 0)
(1.75620982377 -0.660117953451 0 -0.433891571145 0 0)
(1.76779319378 -0.660885307494 0 -0.437397524063 0 0)
(1.75943717017 -0.660317984607 0 -0.434765539872 0 0)
(1.76558520863 -0.660746802384 0 -0.43671418425 0 0)
(1.76118072693 -0.660433838633 0 -0.435279332714 0 0)
(1.76433984868 -0.660661284124 0 -0.436323464894 0 0)
(1.76211352876 -0.660500701991 0 -0.435570223156 0 0)
(1.76367204502 -0.660612382721 0 -0.436107131629 0 0)
(1.76259732916 -0.66053701677 0 -0.435728606155 0 0)
(1.76333027462 -0.660586500524 0 -0.435992059941 0 0)
(1.76283738595 -0.660555171984 0 -0.435810984825 0 0)
(1.76316347592 -0.660574224996 0 -0.435933442511 0 0)
(1.76295045159 -0.660563404042 0 -0.435851747142 0 0)
(1.76308666717 -0.660569239215 0 -0.435905235206 0 0)
(1.7630003567 -0.660566518633 0 -0.435870705239 0 0)
(1.76305366652 -0.660567285813 0 -0.435892765679 0 0)
(1.76302075789 -0.660567241498 0 -0.435879033553 0 0)
(1.76303961409 -0.660566889364 0 -0.435887246203 0 0)
(1.76302784477 -0.660567299823 0 -0.435882233674 0 0)
(1.76303380722 -0.660566888567 0 -0.43588504232 0 0)
(1.76302967306 -0.660567344653 0 -0.435883237711 0 0)
(1.76303130798 -0.660567175552 0 -0.435884080483 0 0)
(1.76303011436 -0.660567321687 0 -0.435883685071 0 0)
(1.76303006008 -0.660567153948 0 -0.435883721225 0 0)
(1.76302946736 -0.660567103331 0 -0.435883425196 0 0)
(1.7630293929 -0.660567186738 0 -0.435883704486 0 0)
(1.76302897706 -0.660567708849 0 -0.435883431512 0 0)
(1.76302929492 -0.660567541988 0 -0.435883647891 0 0)
(1.76303028183 -0.660566623936 0 -0.435884499446 0 0)
(1.76302972449 -0.660566232128 0 -0.435884314022 0 0)
(1.76302848071 -0.660566684357 0 -0.43588376156 0 0)
(1.76302752873 -0.660567190869 0 -0.435883329077 0 0)