/*--------------------------------*- C++ -*----------------------------------*\
  =========                 |
  \\      /  F ield         | OpenFOAM: The Open Source CFD Toolbox
   \\    /   O peration     | Website:  https://openfoam.org
    \\  /    A nd           | Version:  9
     \\/     M anipulation  |
\*---------------------------------------------------------------------------*/
FoamFile
{
    format      ascii;
    class       volVectorField;
    location    "120";
    object      U;
}
// * * * * * * * * * * * * * * * * * * * * * * * * * * * * * * * * * * * * * //

dimensions      [0 1 -1 0 0 0 0];

internalField   nonuniform List<vector> 
12230
(
(0.471108378815 -0.00593692465817 0)
(0.510059492171 -0.000254363063307 0)
(0.489565950105 1.9886263037e-05 0)
(0.50521725231 -2.00874173073e-06 0)
(0.493205761869 7.28054258768e-06 0)
(0.502358982627 -1.06954042387e-06 0)
(0.495242479792 8.63444762662e-06 0)
(0.500511881956 -6.6473975207e-06 0)
(0.496631824136 5.56561562643e-06 0)
(0.499447903941 -4.11527411164e-06 0)
(0.497421281458 3.20252941413e-06 0)
(0.498860830538 -2.34936017695e-06 0)
(0.497849989335 1.71608702124e-06 0)
(0.498550153281 -1.20240401335e-06 0)
(0.498071712884 8.36596236349e-07 0)
(0.498393751022 -5.49840722205e-07 0)
(0.498180171633 3.60667161601e-07 0)
(0.498319432305 -2.20453157571e-07 0)
(0.498230144074 1.34156098004e-07 0)
(0.498286258845 -7.01240154128e-08 0)
(0.498251617087 3.70562218352e-08 0)
(0.498272532562 -8.66414600613e-09 0)
(0.498260076222 1.12802007276e-08 0)
(0.498267191087 5.34610916475e-09 0)
(0.498263131908 1.57393786479e-09 0)
(0.498265316595 8.0537083701e-09 0)
(0.498264096612 3.11105041497e-09 0)
(0.498264678906 5.62375326079e-09 0)
(0.498264351306 5.17566026244e-09 0)
(0.498264451897 6.24298707564e-09 0)
(0.498264365884 4.52168459991e-09 0)
(0.498264363215 6.35617732529e-09 0)
(0.498264324563 2.72749426921e-09 0)
(0.498264328982 1.02161411709e-09 0)
(0.498264314638 7.45153128357e-09 0)
(0.498264258791 1.80335788494e-08 0)
(0.498264171629 2.10239045854e-08 0)
(0.498264101321 1.68480381828e-08 0)
(0.498264060552 1.00623321667e-08 0)
(0.498264038841 5.93689430887e-09 0)
(0.49826402741 3.3596081485e-09 0)
(0.498264020226 1.51331168613e-09 0)
(0.498264018166 -5.84634049004e-11 0)
(0.498264020131 -1.54473541213e-09 0)
(0.498264025471 -2.75309385808e-09 0)
(0.498264032998 -3.64187780154e-09 0)
(0.498264041814 -4.03424828938e-09 0)
(0.498264050335 -3.60913661355e-09 0)
(0.498264056732 -1.9438764732e-09 0)
(0.498264058041 1.71843261383e-09 0)
(0.45829414403 -0.0165179147281 0)
(0.495693549686 -0.000632613758975 0)
(0.475568308813 1.47843859932e-05 0)
(0.490976198327 1.83850916498e-05 0)
(0.47915238373 -1.10363771082e-05 0)
(0.488183839402 2.40851072173e-05 0)
(0.481197016025 -1.17873175586e-06 0)
(0.486368735072 2.842220021e-06 0)
(0.482554482576 -1.74758499617e-06 0)
(0.485327784035 2.37245605739e-06 0)
(0.483328131794 -2.12120331121e-06 0)
(0.484751301057 2.13970899678e-06 0)
(0.483749859283 -1.93331087005e-06 0)
(0.484444966945 1.78806691582e-06 0)
(0.483968957719 -1.56080354848e-06 0)
(0.484290042772 1.36539108027e-06 0)
(0.484076659755 -1.12726864103e-06 0)
(0.484216066906 9.23792410425e-07 0)
(0.484126515149 -7.1700407272e-07 0)
(0.48418289418 5.63573738552e-07 0)
(0.484148037408 -4.16009164867e-07 0)
(0.484169110946 3.20200585988e-07 0)
(0.484156551861 -1.95061662007e-07 0)
(0.484163736956 1.5683283977e-07 0)
(0.484159633852 -8.61501361006e-08 0)
(0.484161851802 7.33507224582e-08 0)
(0.484160613297 -2.23817196587e-08 0)
(0.484161200177 3.19826472211e-08 0)
(0.484160865135 5.15630353513e-09 0)
(0.484160965029 2.21249293504e-08 0)
(0.484160870937 9.67624469351e-09 0)
(0.484160864907 1.80045925746e-08 0)
(0.484160820492 5.9357952503e-09 0)
(0.484160821667 3.71503684283e-09 0)
(0.484160796469 2.2911047683e-08 0)
(0.484160731228 5.05133846898e-08 0)
(0.484160646477 5.50082441248e-08 0)
(0.484160578454 4.31637912285e-08 0)
(0.484160538545 2.34657759839e-08 0)
(0.484160515153 1.3101498568e-08 0)
(0.484160499819 8.11408203023e-09 0)
(0.484160488078 3.38616363785e-09 0)
(0.484160481362 -4.74928614106e-10 0)
(0.484160478036 -4.51937179305e-09 0)
(0.484160477692 -7.83599856427e-09 0)
(0.484160479074 -1.03840221231e-08 0)
(0.484160481565 -1.15318712261e-08 0)
(0.484160483946 -1.07027930778e-08 0)
(0.484160484818 -6.36612586695e-09 0)
(0.4841604818 3.67314166804e-09 0)
(0.436437921773 -0.024972214426 0)
(0.470904118745 -0.00088394667118 0)
(0.451497784998 -1.46229197727e-05 0)
(0.466352875417 5.95492334158e-05 0)
(0.454905865483 -4.39192439025e-05 0)
(0.46369519244 5.49901057129e-05 0)
(0.456954319876 -1.79338453945e-05 0)
(0.461951181898 1.8480947617e-05 0)
(0.458258558637 -1.39479483929e-05 0)
(0.460952751531 1.26902434467e-05 0)
(0.459004178073 -1.03544339993e-05 0)
(0.460395929548 8.86172689024e-06 0)
(0.459413145803 -7.29236284322e-06 0)
(0.460097850346 6.03166594551e-06 0)
(0.459627173766 -4.87801953269e-06 0)
(0.459945894098 3.93490949483e-06 0)
(0.459733280741 -3.08218775477e-06 0)
(0.459872708571 2.39026805136e-06 0)
(0.459782812681 -1.78955464198e-06 0)
(0.459839616877 1.34411591684e-06 0)
(0.459804385921 -9.67785320185e-07 0)
(0.459825756513 7.10225335179e-07 0)
(0.459812997574 -4.45611062738e-07 0)
(0.459820333776 3.33087411805e-07 0)
(0.459816132758 -1.91820660736e-07 0)
(0.459818414583 1.46256619126e-07 0)
(0.459817142874 -5.62102283865e-08 0)
(0.459817754417 5.85807866122e-08 0)
(0.459817415774 -8.84151252479e-10 0)
(0.459817528214 3.61506503571e-08 0)
(0.459817429575 1.19365912879e-08 0)
(0.459817428434 2.85261387371e-08 0)
(0.459817380758 9.78581763869e-09 0)
(0.459817378659 7.73424730368e-09 0)
(0.459817349392 3.82148933318e-08 0)
(0.459817274089 7.74476603901e-08 0)
(0.459817200984 7.94836505295e-08 0)
(0.459817149395 6.00057907584e-08 0)
(0.459817124741 3.01820866048e-08 0)
(0.459817113062 1.60294466063e-08 0)
(0.459817099176 1.04157791538e-08 0)
(0.459817088022 3.71482475714e-09 0)
(0.459817079883 -1.33843344973e-09 0)
(0.459817073488 -7.2386916928e-09 0)
(0.459817069399 -1.20724799706e-08 0)
(0.459817066659 -1.59438924725e-08 0)
(0.459817064807 -1.74777425925e-08 0)
(0.459817063151 -1.63840473017e-08 0)
(0.459817060542 -9.96686274414e-09 0)
(0.459817055776 5.0628551438e-09 0)
(0.408488292054 -0.0310366883675 0)
(0.438927331907 -0.00111064270386 0)
(0.420404173397 -4.09783802516e-05 0)
(0.434454720184 8.44051289305e-05 0)
(0.423517777853 -5.98946771631e-05 0)
(0.43193416687 6.88961267559e-05 0)
(0.425557520719 -2.36143064626e-05 0)
(0.430305047481 2.47307701726e-05 0)
(0.426788686278 -1.86114752005e-05 0)
(0.429365712692 1.67514263143e-05 0)
(0.427495013952 -1.35380291207e-05 0)
(0.428837224477 1.14969965024e-05 0)
(0.42788526337 -9.39496214124e-06 0)
(0.428551678991 7.71999145761e-06 0)
(0.428091343148 -6.20616649716e-06 0)
(0.428404637655 4.97980574557e-06 0)
(0.428194602483 -3.88134182862e-06 0)
(0.428333026385 3.00255790502e-06 0)
(0.428243321216 -2.2482062652e-06 0)
(0.428300307257 1.68208990704e-06 0)
(0.428264801663 -1.21493123726e-06 0)
(0.428286444057 8.89726492942e-07 0)
(0.428273483244 -5.62784167655e-07 0)
(0.428280991481 4.19271766645e-07 0)
(0.428276678764 -2.4321440236e-07 0)
(0.428279012649 1.86557439e-07 0)
(0.428277700827 -7.29789018588e-08 0)
(0.428278344809 7.26189505399e-08 0)
(0.428278000099 -4.70528441456e-09 0)
(0.428278128209 4.56888898533e-08 0)
(0.428278032079 1.27316427561e-08 0)
(0.428278042418 3.61788494402e-08 0)
(0.42827799358 1.08286709759e-08 0)
(0.42827799403 6.86758009066e-09 0)
(0.428277971986 5.16766957191e-08 0)
(0.42827789547 9.94527629443e-08 0)
(0.428277842978 9.45403209045e-08 0)
(0.428277809934 6.78923675832e-08 0)
(0.428277797964 3.18707924183e-08 0)
(0.428277795347 1.55306278947e-08 0)
(0.428277784148 1.01583244988e-08 0)
(0.4282777733 2.87583987406e-09 0)
(0.428277764475 -2.36508460236e-09 0)
(0.428277755995 -9.50702881598e-09 0)
(0.428277748573 -1.50629075139e-08 0)
(0.428277741882 -2.0068677657e-08 0)
(0.428277736227 -2.17790320576e-08 0)
(0.42827773138 -2.06367630938e-08 0)
(0.428277726229 -1.32249278551e-08 0)
(0.428277720751 5.08955083233e-09 0)
(0.376771119986 -0.0348616221754 0)
(0.402039499892 -0.00128934570103 0)
(0.384586067136 -3.18452657431e-05 0)
(0.397701873591 8.88111380188e-05 0)
(0.387400974186 -5.98241733043e-05 0)
(0.395301821786 6.67196883476e-05 0)
(0.389390160108 -2.20094361301e-05 0)
(0.393817517669 2.36876703909e-05 0)
(0.39052879035 -1.77677668877e-05 0)
(0.392950204971 1.60783978381e-05 0)
(0.391185278183 -1.30026776793e-05 0)
(0.392457850946 1.10787508087e-05 0)
(0.391550834336 -9.05737197345e-06 0)
(0.392189196379 7.47906121411e-06 0)
(0.391745812087 -6.02859377243e-06 0)
(0.392049310464 4.86087306482e-06 0)
(0.391844689234 -3.80406635924e-06 0)
(0.391980326094 2.96108020256e-06 0)
(0.39189187832 -2.22454661649e-06 0)
(0.391948433118 1.67397267005e-06 0)
(0.391912990932 -1.21830912669e-06 0)
(0.391934728287 9.00281517177e-07 0)
(0.391921651988 -5.70276261602e-07 0)
(0.391929287318 4.32186977423e-07 0)
(0.391924887237 -2.4715360094e-07 0)
(0.391927270024 1.9811117312e-07 0)
(0.391925924492 -7.55163226156e-08 0)
(0.391926600685 7.63226912901e-08 0)
(0.391926235186 -4.54374522862e-09 0)
(0.391926375251 5.07121980046e-08 0)
(0.391926283188 1.18918863936e-08 0)
(0.391926305988 4.059350863e-08 0)
(0.39192626201 9.39491354182e-09 0)
(0.391926285829 3.1710327915e-09 0)
(0.39192627747 6.44697567676e-08 0)
(0.391926208265 1.15443942704e-07 0)
(0.391926178066 1.01525423623e-07 0)
(0.391926161465 7.09101653536e-08 0)
(0.391926155543 2.85689737937e-08 0)
(0.391926154355 1.26219120856e-08 0)
(0.391926144241 9.15255029684e-09 0)
(0.391926133096 2.050183426e-09 0)
(0.391926123107 -2.48214037555e-09 0)
(0.39192611262 -1.02692121293e-08 0)
(0.391926102012 -1.5636323078e-08 0)
(0.391926090872 -2.15506212963e-08 0)
(0.391926080665 -2.34776040988e-08 0)
(0.391926072197 -2.26780028879e-08 0)
(0.391926065129 -1.53398243777e-08 0)
(0.391926058251 4.76949105663e-09 0)
(0.342867582758 -0.0367063385295 0)
(0.36166864536 -0.00131085492935 0)
(0.345805592905 -3.80891262056e-06 0)
(0.357922943452 8.8936246489e-05 0)
(0.348408133479 -5.33600609767e-05 0)
(0.35566637518 5.71721186873e-05 0)
(0.350295205621 -1.76074179444e-05 0)
(0.354344791601 1.97591500823e-05 0)
(0.351328348077 -1.46562777906e-05 0)
(0.353560055938 1.34564612452e-05 0)
(0.351926740887 -1.08774295693e-05 0)
(0.353110458108 9.34876099246e-06 0)
(0.352262490051 -7.67449393266e-06 0)
(0.352862667845 6.38495146633e-06 0)
(0.352443387817 -5.17537103179e-06 0)
(0.352732159709 4.20669521634e-06 0)
(0.352536251039 -3.31267730676e-06 0)
(0.352666955653 2.60269039438e-06 0)
(0.352581156905 -1.96448147636e-06 0)
(0.352636421528 1.48970854559e-06 0)
(0.352601536983 -1.09363978135e-06 0)
(0.35262307741 8.20109443054e-07 0)
(0.352610036395 -5.17769853321e-07 0)
(0.352617718839 4.01601130229e-07 0)
(0.352613270417 -2.24499340634e-07 0)
(0.35261570873 1.92509708341e-07 0)
(0.352614336878 -6.88282655779e-08 0)
(0.352615046016 7.35862072956e-08 0)
(0.35261466165 -2.38504418093e-09 0)
(0.352614815823 5.14758402126e-08 0)
(0.352614730235 8.76595025129e-09 0)
(0.352614770339 4.14203929789e-08 0)
(0.352614731383 6.47865563314e-09 0)
(0.352614773708 -4.14755332872e-09 0)
(0.352614774487 7.23701784137e-08 0)
(0.35261471163 1.24830735894e-07 0)
(0.352614705169 1.01797337848e-07 0)
(0.352614699953 7.13985505948e-08 0)
(0.352614698405 2.44357796133e-08 0)
(0.352614700747 9.52422800938e-09 0)
(0.352614691175 8.05124820074e-09 0)
(0.352614680414 1.16559904254e-09 0)
(0.352614669527 -2.0827490071e-09 0)
(0.352614657127 -1.01412359892e-08 0)
(0.352614644313 -1.4512708055e-08 0)
(0.352614629244 -2.0835928668e-08 0)
(0.352614613537 -2.29732024474e-08 0)
(0.352614600731 -2.33621136383e-08 0)
(0.352614592859 -1.68919019714e-08 0)
(0.352614584913 3.62496180029e-09 0)
(0.307524755007 -0.0367704469195 0)
(0.319222241813 -0.00120447372107 0)
(0.305461850421 1.21069735063e-05 0)
(0.31653984164 8.31558317793e-05 0)
(0.30795291182 -4.30176904416e-05 0)
(0.314474298145 4.51063871903e-05 0)
(0.309692140339 -1.26006559729e-05 0)
(0.313319758564 1.49275848931e-05 0)
(0.310610515289 -1.08820548215e-05 0)
(0.312624376946 1.02013712886e-05 0)
(0.311144594807 -8.24592237616e-06 0)
(0.312222433468 7.1706650665e-06 0)
(0.311446422848 -5.92083893275e-06 0)
(0.311998770327 4.97448352562e-06 0)
(0.311610644635 -4.06054978101e-06 0)
(0.311879647498 3.33465680599e-06 0)
(0.311695948144 -2.64077250782e-06 0)
(0.311819351576 2.10214480453e-06 0)
(0.31173779654 -1.59668785838e-06 0)
(0.311790740583 1.21904143973e-06 0)
(0.311757042488 -9.0510327189e-07 0)
(0.311778008484 6.90527889384e-07 0)
(0.311765222474 -4.32697998128e-07 0)
(0.311772834024 3.45928713849e-07 0)
(0.311768404633 -1.87493458966e-07 0)
(0.311770879269 1.73711747712e-07 0)
(0.311769494334 -5.78441811511e-08 0)
(0.311770231109 6.57136968634e-08 0)
(0.311769839538 1.89932426625e-09 0)
(0.311770014504 4.95575587178e-08 0)
(0.311769930562 4.9809434102e-09 0)
(0.311769984596 4.04045340872e-08 0)
(0.311769948748 1.66125891895e-09 0)
(0.31176999078 -1.41843949595e-08 0)
(0.311769997879 7.63440103017e-08 0)
(0.311769948163 1.29270252024e-07 0)
(0.311769968231 9.59943918613e-08 0)
(0.311769978696 4.83009973288e-08 0)
(0.311769973567 2.05435971819e-08 0)
(0.311769979333 6.61853000207e-09 0)
(0.311769969442 7.09554859765e-09 0)
(0.311769958802 4.7324516243e-10 0)
(0.311769947182 -1.17554853232e-09 0)
(0.311769933085 -9.47492790837e-09 0)
(0.311769918579 -1.23694944159e-08 0)
(0.311769900976 -1.83268143195e-08 0)
(0.311769879874 -2.02946788984e-08 0)
(0.311769861863 -2.31124585346e-08 0)
(0.311769853449 -1.81814392896e-08 0)
(0.311769845113 1.70762383849e-09 0)
(0.271058706414 -0.0353003852853 0)
(0.276311995057 -0.001046230861 0)
(0.264717214327 7.55805216063e-06 0)
(0.274659481408 7.36230972404e-05 0)
(0.267103673134 -3.15561806662e-05 0)
(0.272823864509 3.28973040497e-05 0)
(0.268658856233 -7.87897619748e-06 0)
(0.271834226179 1.01428321211e-05 0)
(0.269457069647 -7.18673382017e-06 0)
(0.271231858055 6.96230368778e-06 0)
(0.269922862287 -5.62543294286e-06 0)
(0.270880832018 4.97893682869e-06 0)
(0.27018782221 -4.14256140263e-06 0)
(0.270683766914 3.52887888089e-06 0)
(0.270333297602 -2.90725702014e-06 0)
(0.270577711297 2.42123737819e-06 0)
(0.270409725509 -1.93145454771e-06 0)
(0.270523370958 1.56032004093e-06 0)
(0.270447747189 -1.19541446172e-06 0)
(0.270497215372 9.2189022761e-07 0)
(0.270465449803 -6.90177399793e-07 0)
(0.270485391476 5.40252190808e-07 0)
(0.270473148587 -3.3306500379e-07 0)
(0.270480524544 2.77180187179e-07 0)
(0.2704762067 -1.44542114908e-07 0)
(0.270478668429 1.46582620265e-07 0)
(0.270477296569 -4.37380155405e-08 0)
(0.27047804583 5.47335672437e-08 0)
(0.270477651363 5.83229706836e-09 0)
(0.270477849835 4.46630861374e-08 0)
(0.270477760298 -3.35689089051e-10 0)
(0.2704778195 3.79718815714e-08 0)
(0.270477787455 -3.09709588333e-09 0)
(0.270477822799 -2.33104315395e-08 0)
(0.270477831897 7.70854203868e-08 0)
(0.270477810491 1.28074192857e-07 0)
(0.270477849494 8.62223449621e-08 0)
(0.270477881678 2.2553652813e-08 0)
(0.270477875927 1.61492079104e-08 0)
(0.270477878733 4.26898050857e-09 0)
(0.270477868027 6.37581622844e-09 0)
(0.270477857693 3.75815816906e-11 0)
(0.270477845626 2.08266793608e-11 0)
(0.270477830675 -8.50726282049e-09 0)
(0.270477814661 -9.76045559042e-09 0)
(0.27047779462 -1.46608425808e-08 0)
(0.270477769729 -1.5636919351e-08 0)
(0.2704777455 -2.16174341197e-08 0)
(0.270477734335 -1.88911372387e-08 0)
(0.270477725649 -4.10607706848e-10 0)
(0.233836365513 -0.0325940878111 0)
(0.234208977673 -0.000862037717573 0)
(0.224403710377 -7.71187891408e-06 0)
(0.233138888127 5.97851776096e-05 0)
(0.226657869904 -2.16863640099e-05 0)
(0.231538587326 2.18355443836e-05 0)
(0.228001905323 -3.90847682159e-06 0)
(0.230708514548 5.96100416142e-06 0)
(0.228678077292 -4.00189956529e-06 0)
(0.230200020235 4.12417734059e-06 0)
(0.229073746793 -3.3290028918e-06 0)
(0.229901563418 3.03826479055e-06 0)
(0.22930009399 -2.5591857777e-06 0)
(0.229732692505 2.22906164385e-06 0)
(0.229425373887 -1.86195474403e-06 0)
(0.229640955556 1.58418296583e-06 0)
(0.229491880688 -1.27583802007e-06 0)
(0.229593430758 1.05130747348e-06 0)
(0.229525390163 -8.13773354143e-07 0)
(0.229570223314 6.38229450897e-07 0)
(0.229541191925 -4.8201214346e-07 0)
(0.229559593101 3.89318716635e-07 0)
(0.229548220629 -2.33986298745e-07 0)
(0.229555159882 2.05693360766e-07 0)
(0.229551071996 -1.01189518575e-07 0)
(0.229553451962 1.15857163376e-07 0)
(0.229552131052 -2.87877343653e-08 0)
(0.229552868671 4.22362716902e-08 0)
(0.229552474494 9.13494776e-09 0)
(0.22955269547 3.85185350632e-08 0)
(0.229552596212 -2.20129722185e-09 0)
(0.229552657801 3.45291646904e-08 0)
(0.229552638949 -6.86779790015e-09 0)
(0.229552660649 -3.0215007147e-08 0)
(0.229552663053 7.37366846974e-08 0)
(0.22955269014 1.20648138961e-07 0)
(0.229552747484 7.31928894985e-08 0)
(0.229552788528 1.57181801699e-08 0)
(0.229552783527 1.15898104773e-08 0)
(0.229552785279 1.89237197129e-09 0)
(0.229552774013 5.85163145964e-09 0)
(0.229552764934 -7.76078202845e-10 0)
(0.229552752762 9.84786700575e-10 0)
(0.229552737326 -7.49444974309e-09 0)
(0.229552719951 -6.95298571372e-09 0)
(0.229552697413 -1.05096647129e-08 0)
(0.229552671197 -9.80105345898e-09 0)
(0.229552641125 -1.82975826962e-08 0)
(0.229552623456 -1.82233433862e-08 0)
(0.229552612656 -2.05230766155e-09 0)
(0.196329592392 -0.0289199368978 0)
(0.193548015591 -0.000662692586799 0)
(0.185092372305 -1.95556562962e-05 0)
(0.192595115052 4.34674757246e-05 0)
(0.187188311901 -1.26324856207e-05 0)
(0.191223063354 1.2864513573e-05 0)
(0.188312335669 -8.97363237101e-07 0)
(0.190547103492 2.67927945644e-06 0)
(0.188868051452 -1.54792894097e-06 0)
(0.190131004231 1.89171497709e-06 0)
(0.189193727448 -1.52440813256e-06 0)
(0.189885253487 1.49453088032e-06 0)
(0.189380890234 -1.29304824015e-06 0)
(0.189745271632 1.17841760607e-06 0)
(0.189485189481 -1.01055409997e-06 0)
(0.18966860995 8.9419088597e-07 0)
(0.189541071036 -7.31067812202e-07 0)
(0.189628510543 6.22967293743e-07 0)
(0.189569537353 -4.87372136843e-07 0)
(0.189608675453 3.93154657462e-07 0)
(0.189583135961 -3.01471786448e-07 0)
(0.189599467076 2.54594994593e-07 0)
(0.18958931066 -1.46104949634e-07 0)
(0.189595592742 1.39360474012e-07 0)
(0.189591871036 -6.23733779647e-08 0)
(0.189594086801 8.5035177129e-08 0)
(0.18959286521 -1.4828574907e-08 0)
(0.189593565118 3.01054120097e-08 0)
(0.189593183659 1.13240540358e-08 0)
(0.189593421955 3.1700034349e-08 0)
(0.189593310148 -4.0956077076e-09 0)
(0.189593372092 2.84391989661e-08 0)
(0.189593377153 -1.03569643215e-08 0)
(0.189593374614 -3.42475449384e-08 0)
(0.189593361635 6.58239214902e-08 0)
(0.189593457789 1.05998596146e-07 0)
(0.189593532527 5.74570914708e-08 0)
(0.189593575027 9.02680078891e-09 0)
(0.189593570111 6.56541928812e-09 0)
(0.189593570917 -7.74269996365e-10 0)
(0.189593558868 4.8599535977e-09 0)
(0.189593551334 -2.16044230161e-09 0)
(0.189593539159 1.28462180404e-09 0)
(0.189593524004 -6.91815806427e-09 0)
(0.189593505687 -4.56921039857e-09 0)
(0.189593481614 -6.60120415849e-09 0)
(0.189593455145 -3.99336408832e-09 0)
(0.189593423132 -1.34079881748e-08 0)
(0.189593396739 -1.56064069976e-08 0)
(0.189593381132 -3.64718148902e-09 0)
(0.158979514925 -0.0245036828723 0)
(0.154582525287 -0.000466407071075 0)
(0.147225596833 -2.50042256379e-05 0)
(0.153442207751 2.74098065454e-05 0)
(0.149110285027 -5.12312266437e-06 0)
(0.152313101156 6.26054335058e-06 0)
(0.150012181207 1.08335555878e-06 0)
(0.151783778599 3.98171808454e-07 0)
(0.150451469723 1.12251022059e-07 0)
(0.151456589992 3.34634914157e-07 0)
(0.150708967188 -2.67785787607e-07 0)
(0.151262338575 4.00780572562e-07 0)
(0.150857453785 -3.89731539624e-07 0)
(0.151151084388 4.18324215313e-07 0)
(0.150940651816 -3.88541421409e-07 0)
(0.151089749664 3.82288780592e-07 0)
(0.150985581774 -3.23732952964e-07 0)
(0.15105741055 2.97381280675e-07 0)
(0.151008680779 -2.37284497384e-07 0)
(0.151041241318 2.01599926208e-07 0)
(0.151019834457 -1.58404350175e-07 0)
(0.151033632248 1.4455029978e-07 0)
(0.151025013593 -7.64003681476e-08 0)
(0.151030421859 8.31111632396e-08 0)
(0.151027205693 -3.175701365e-08 0)
(0.151029169563 5.64591776633e-08 0)
(0.151028101267 -3.90581105693e-09 0)
(0.15102873297 1.91216402216e-08 0)
(0.151028381509 1.15600695715e-08 0)
(0.151028627769 2.36030314443e-08 0)
(0.151028518076 -4.62502835723e-09 0)
(0.151028575186 2.02158855142e-08 0)
(0.151028600177 -1.23632136897e-08 0)
(0.151028557499 -3.34307568207e-08 0)
(0.151028528946 5.26958725931e-08 0)
(0.15102870555 8.35931160992e-08 0)
(0.151028797875 4.03938407616e-08 0)
(0.151028838249 2.55279184373e-09 0)
(0.151028833415 2.06998416145e-09 0)
(0.15102883297 -3.05627948025e-09 0)
(0.151028821558 3.26642257572e-09 0)
(0.151028815469 -3.52430776988e-09 0)
(0.151028802219 1.01921858453e-09 0)
(0.151028789024 -6.45476779757e-09 0)
(0.151028769188 -2.4225685664e-09 0)
(0.151028746274 -3.13325131077e-09 0)
(0.151028721187 1.22698852186e-09 0)
(0.151028689986 -7.21407988823e-09 0)
(0.151028658724 -1.04467233835e-08 0)
(0.151028631076 -4.95487333506e-09 0)
(0.122169834094 -0.0195420396961 0)
(0.117395174354 -0.000294842082757 0)
(0.111117338929 -2.20898378912e-05 0)
(0.115952003613 1.51461811496e-05 0)
(0.112707951584 -3.45462961794e-07 0)
(0.115110291195 1.84888291407e-06 0)
(0.113390932744 2.02161746296e-06 0)
(0.114717888289 -9.06939144519e-07 0)
(0.113719517655 1.00161000646e-06 0)
(0.114474508099 -5.57680332769e-07 0)
(0.113911996755 4.50600114546e-07 0)
(0.114329427027 -2.459520458e-07 0)
(0.11402324578 1.51705359423e-07 0)
(0.114245984656 -4.90061287718e-08 0)
(0.114085831768 1.39208406853e-10 0)
(0.114199747995 5.37534781069e-08 0)
(0.114119857749 -5.99874413478e-08 0)
(0.114175222278 8.06906999777e-08 0)
(0.11413747883 -6.94914321259e-08 0)
(0.11416285336 7.01853552085e-08 0)
(0.114146059628 -5.84847273347e-08 0)
(0.114156966956 6.37147293675e-08 0)
(0.114150135915 -2.81993398471e-08 0)
(0.114154486317 4.01044847182e-08 0)
(0.11415190046 -1.11082613193e-08 0)
(0.114153529795 3.23717074078e-08 0)
(0.114152667865 3.11486660963e-09 0)
(0.114153199843 1.04858599672e-08 0)
(0.114152897744 1.00258732498e-08 0)
(0.114153140838 1.48720148257e-08 0)
(0.114153048377 -2.0553516833e-09 0)
(0.114153098017 1.06719188478e-08 0)
(0.11415314459 -1.16384020874e-08 0)
(0.114153041448 -2.71852262813e-08 0)
(0.114153003163 3.22897909604e-08 0)
(0.114153260706 5.07131960593e-08 0)
(0.11415337137 2.32765705828e-08 0)
(0.114153410667 -3.03655966786e-09 0)
(0.114153404222 -1.57435617568e-09 0)
(0.11415340036 -4.85712883825e-09 0)
(0.1141533901 1.27366034466e-09 0)
(0.114153385841 -4.72138784106e-09 0)
(0.114153371992 1.5350943695e-10 0)
(0.114153362159 -5.5025618758e-09 0)
(0.114153339594 -7.48712909831e-10 0)
(0.11415331791 -9.73286181747e-10 0)
(0.114153297323 4.89882799655e-09 0)
(0.114153266833 -1.25599235115e-09 0)
(0.114153235552 -4.85412895508e-09 0)
(0.114153194512 -7.02942908459e-09 0)
(0.0862356417901 -0.0142029623163 0)
(0.0819287747737 -0.000158315021971 0)
(0.0769598271492 -1.4095472193e-05 0)
(0.0803612825731 6.42304903289e-06 0)
(0.0781610758873 1.82761199413e-06 0)
(0.0798095031537 -4.5385499467e-07 0)
(0.0786345390348 2.05448547028e-06 0)
(0.0795433155079 -1.31424244052e-06 0)
(0.0788596404349 1.20147763452e-06 0)
(0.0793776200271 -8.45840340108e-07 0)
(0.078991282935 6.80599633787e-07 0)
(0.0792785423764 -4.84499398011e-07 0)
(0.0790674622914 3.61116143792e-07 0)
(0.0792213859607 -2.46111686742e-07 0)
(0.0791104400175 1.71593321717e-07 0)
(0.079189605233 -1.02072335154e-07 0)
(0.0791339331916 6.81498227461e-08 0)
(0.0791726782304 -3.10154448607e-08 0)
(0.0791461701777 1.870084954e-08 0)
(0.0791640904292 -1.77971567244e-09 0)
(0.0791521674795 -2.51249290361e-09 0)
(0.0791599686257 1.43369918444e-08 0)
(0.0791550857146 -1.80203840788e-09 0)
(0.0791582525492 1.15357519948e-08 0)
(0.0791563885473 -1.21570794028e-09 0)
(0.0791576148999 1.36399595802e-08 0)
(0.0791570032458 5.64431979959e-09 0)
(0.0791574089038 4.19167528701e-09 0)
(0.0791571760112 6.02368654335e-09 0)
(0.0791574001192 5.0812595329e-09 0)
(0.0791573438241 -3.72727877331e-09 0)
(0.0791573691529 4.89570399453e-09 0)
(0.0791573906411 -3.22346976223e-09 0)
(0.0791572032952 -1.23565050768e-08 0)
(0.0791571351337 8.93601275188e-09 0)
(0.0791574525662 1.62532324615e-08 0)
(0.0791575535185 1.06509346607e-08 0)
(0.0791575644521 -4.34974099667e-09 0)
(0.0791575354396 -1.66456137196e-09 0)
(0.0791575156768 -4.38157327978e-09 0)
(0.0791574996356 4.18757963188e-10 0)
(0.079157488077 -3.80528960257e-09 0)
(0.0791574653857 1.02842991626e-09 0)
(0.0791574489133 -2.86243815742e-09 0)
(0.0791574193309 1.01873557857e-09 0)
(0.0791574012098 -1.13818350585e-09 0)
(0.0791573965929 3.70021895441e-09 0)
(0.0791573807661 -1.40247809927e-09 0)
(0.0791573687592 -4.69393795064e-09 0)
(0.0791573299392 -6.31024855304e-09 0)
(0.0514207103157 -0.00865221619937 0)
(0.0481112182704 -6.44884228723e-05 0)
(0.0448278444039 -5.89347117719e-06 0)
(0.0468247914232 1.26566701853e-06 0)
(0.0455761012566 1.71876481478e-06 0)
(0.0465237898912 -1.04866901978e-06 0)
(0.0458501602503 1.38805745293e-06 0)
(0.0463719473397 -1.01616047685e-06 0)
(0.0459795497208 8.70105917014e-07 0)
(0.0462772533571 -6.59183262688e-07 0)
(0.0460550777039 5.28446925707e-07 0)
(0.0462205121584 -3.99322509027e-07 0)
(0.0460988031226 3.06829625892e-07 0)
(0.0461877156917 -2.25714692969e-07 0)
(0.0461235177809 1.67490516972e-07 0)
(0.046169447331 -1.16597836184e-07 0)
(0.0461370920591 8.45326605945e-08 0)
(0.0461596938654 -5.54624169684e-08 0)
(0.0461441991768 3.93836216455e-08 0)
(0.0461547325451 -2.3743642336e-08 0)
(0.0461477017091 1.56548684782e-08 0)
(0.0461523310188 -6.09955490143e-09 0)
(0.0461494254853 7.3225422117e-09 0)
(0.0461513196684 -1.28087728806e-09 0)
(0.0461501820738 3.0727218204e-09 0)
(0.0461509128655 2.9150783406e-09 0)
(0.04615056769 4.77901058584e-09 0)
(0.0461508256648 4.49040378463e-10 0)
(0.0461506704554 3.95355180256e-09 0)
(0.0461508079964 5.17661428725e-10 0)
(0.0461507349155 5.41298673856e-11 0)
(0.0461507459837 2.88699231576e-10 0)
(0.0461507491352 -6.08305492725e-10 0)
(0.046150646902 -5.33187807693e-09 0)
(0.046150583281 2.74722346952e-09 0)
(0.0461506582271 4.84281141372e-09 0)
(0.0461507122738 2.53757137479e-09 0)
(0.0461506927614 -3.70407425167e-09 0)
(0.046150647566 -5.91269840694e-10 0)
(0.0461506192762 -3.20296742018e-09 0)
(0.046150593711 1.31039568148e-09 0)
(0.04615057482 -2.79502950384e-09 0)
(0.0461505502834 1.47245070536e-09 0)
(0.0461505334603 -2.50252371702e-09 0)
(0.046150511822 1.62424345399e-09 0)
(0.0461504926669 -9.35261550934e-10 0)
(0.0461504849451 3.60912707288e-09 0)
(0.0461504740558 6.35674308364e-11 0)
(0.0461504644002 1.15255968993e-09 0)
(0.046150437936 2.20587809263e-09 0)
(0.0174792434929 -0.00296440612053 0)
(0.0159625243161 -2.32465941631e-05 0)
(0.0147275418663 3.7706539699e-09 0)
(0.015393607216 -2.24658534344e-07 0)
(0.0149946543296 8.31359625132e-07 0)
(0.015301364735 -5.93296269469e-07 0)
(0.0150839715907 5.70001482164e-07 0)
(0.0152526215697 -4.394228163e-07 0)
(0.0151258560268 3.66681982479e-07 0)
(0.0152221726023 -2.87400106157e-07 0)
(0.0151502389997 2.31254075673e-07 0)
(0.0152038890517 -1.79596250285e-07 0)
(0.0151643591261 1.40645554208e-07 0)
(0.0151932984955 -1.06969759182e-07 0)
(0.0151723571321 8.20051017455e-08 0)
(0.0151873900101 -6.02964197337e-08 0)
(0.0151767754003 4.53064228502e-08 0)
(0.0151842253224 -3.20228372359e-08 0)
(0.0151791036787 2.39252641255e-08 0)
(0.0151826100966 -1.59770928725e-08 0)
(0.0151802604568 1.15428974109e-08 0)
(0.0151818202042 -7.08242566348e-09 0)
(0.0151808315595 5.42799999501e-09 0)
(0.0151814718432 -3.2260080727e-09 0)
(0.0151810658095 2.00232508038e-09 0)
(0.0151813015019 -4.48738664242e-10 0)
(0.0151811860828 2.00677816536e-09 0)
(0.0151812814307 -1.85717802197e-10 0)
(0.0151812243389 6.2219830627e-10 0)
(0.01518126828 1.83924958082e-11 0)
(0.0151812082918 -8.82583227971e-10 0)
(0.0151812126551 -5.25645215384e-10 0)
(0.0151812133226 -1.08526146854e-09 0)
(0.0151812144267 4.21495780878e-10 0)
(0.0151812358928 -2.30854554515e-09 0)
(0.0151811648917 -5.55526129264e-09 0)
(0.0151811600046 -4.96221240161e-10 0)
(0.015181144875 -2.09851116473e-09 0)
(0.0151811280848 -7.19182140978e-10 0)
(0.0151811193281 -6.2310189205e-10 0)
(0.0151811083545 -6.47088724885e-10 0)
(0.0151811002461 -7.08798188761e-10 0)
(0.015181091247 -4.32461994427e-10 0)
(0.0151810852095 1.86369187954e-10 0)
(0.0151810811562 3.62060418613e-10 0)
(0.0151810749331 -1.09447663551e-10 0)
(0.0151810676014 -5.41156040001e-11 0)
(0.0151810610393 -4.45061934188e-13 0)
(0.0151810541272 -5.56460848673e-10 0)
(0.0151810449699 -5.35181518674e-10 0)
(0.498264050724 7.04926061735e-09 0)
(0.498264033138 1.35673381609e-08 0)
(0.498264003429 2.14875561856e-08 0)
(0.498263959666 3.10343331624e-08 0)
(0.498263899206 4.30662436471e-08 0)
(0.49826381826 5.89492191665e-08 0)
(0.498263710476 8.09435324966e-08 0)
(0.498263565198 1.11395751804e-07 0)
(0.498263368555 1.52282240277e-07 0)
(0.498263105469 2.04696543124e-07 0)
(0.498262758757 2.71072650423e-07 0)
(0.498262309946 3.51652634841e-07 0)
(0.498261742213 4.44989359964e-07 0)
(0.498261043726 5.46416264722e-07 0)
(0.498260210874 6.50462028341e-07 0)
(0.498259249506 7.48861789936e-07 0)
(0.498258179124 8.2961899336e-07 0)
(0.498257035733 8.7576410944e-07 0)
(0.498255883133 8.65036363788e-07 0)
(0.498254805499 7.69195866878e-07 0)
(0.498253930943 5.54043901151e-07 0)
(0.498253426917 1.6443668088e-07 0)
(0.498253519081 -4.56152550548e-07 0)
(0.4982545032 -1.35921441883e-06 0)
(0.498256716452 -2.59660136839e-06 0)
(0.498260543491 -4.23640193578e-06 0)
(0.49826643619 -6.36412531984e-06 0)
(0.498274923276 -9.06658168277e-06 0)
(0.498286598555 -1.24261351563e-05 0)
(0.498302122594 -1.65275451511e-05 0)
(0.49832220231 -2.14335230078e-05 0)
(0.498347566125 -2.71954529106e-05 0)
(0.498378951096 -3.38443403672e-05 0)
(0.498417075555 -4.13827834399e-05 0)